
Host: cfeld-pcx14803

Timers On : Wed Jun 30 16:59:18 2021
Timers Off: Wed Jun 30 16:59:25 2021

Wall Time:        6.83 seconds

                                                       Time (seconds)
Module                                       User      System        Wall        Calls

--------------------------------------------------------------------------------------

**************************************************************************************

Host: cfeld-pcx14803

Timers On : Thu Jul  1 15:25:28 2021
Timers Off: Thu Jul  1 15:25:35 2021

Wall Time:        7.47 seconds

                                                       Time (seconds)
Module                                       User      System        Wall        Calls

--------------------------------------------------------------------------------------

**************************************************************************************
