
Host: cfeld-pcx14803

Timers On : Wed Jun 30 16:59:18 2021
Timers Off: Wed Jun 30 16:59:25 2021

Wall Time:        6.83 seconds

                                                       Time (seconds)
Module                                       User      System        Wall        Calls

--------------------------------------------------------------------------------------

**************************************************************************************
