
Host: cfeld-pcx14803

Timers On : Tue Jun 15 17:33:31 2021
Timers Off: Tue Jun 15 17:33:36 2021

Wall Time:        5.65 seconds

                                                       Time (seconds)
Module                                       User      System        Wall        Calls

--------------------------------------------------------------------------------------

**************************************************************************************

Host: cfeld-pcx14803

Timers On : Tue Jun 15 17:33:54 2021
Timers Off: Tue Jun 15 17:34:04 2021

Wall Time:       10.17 seconds

                                                       Time (seconds)
Module                                       User      System        Wall        Calls

--------------------------------------------------------------------------------------

**************************************************************************************
