
Host: cfeld-pcx14803

Timers On : Wed Jun  9 09:25:39 2021
Timers Off: Wed Jun  9 09:25:45 2021

Wall Time:        6.50 seconds

                                                       Time (seconds)
Module                                       User      System        Wall        Calls

--------------------------------------------------------------------------------------

**************************************************************************************

Host: cfeld-pcx14803

Timers On : Wed Jun  9 09:30:09 2021
Timers Off: Wed Jun  9 09:30:15 2021

Wall Time:        6.62 seconds

                                                       Time (seconds)
Module                                       User      System        Wall        Calls

--------------------------------------------------------------------------------------

**************************************************************************************

Host: cfeld-pcx14803

Timers On : Wed Jun  9 09:30:45 2021
Timers Off: Wed Jun  9 09:30:50 2021

Wall Time:        4.77 seconds

                                                       Time (seconds)
Module                                       User      System        Wall        Calls

--------------------------------------------------------------------------------------

**************************************************************************************
