
Host: ezak

Timers On : Mon Sep 20 09:04:53 2021
Timers Off: Mon Sep 20 09:06:30 2021

Wall Time:       96.84 seconds

                                                       Time (seconds)
Module                                       User      System        Wall        Calls

--------------------------------------------------------------------------------------

**************************************************************************************
