
Host: cfeld-pcx14803

Timers On : Wed May  5 09:09:19 2021
Timers Off: Wed May 19 13:10:47 2021

Wall Time:   572127.26 seconds

                                                       Time (seconds)
Module                                       User      System        Wall        Calls

--------------------------------------------------------------------------------------

**************************************************************************************
