
Host: ezak

Timers On : Mon Sep 20 09:06:31 2021
Timers Off: Mon Sep 20 09:12:20 2021

Wall Time:      348.85 seconds

                                                       Time (seconds)
Module                                       User      System        Wall        Calls

--------------------------------------------------------------------------------------

**************************************************************************************
