
Host: cfeld-pcx14803

Timers On : Wed Jun  9 21:36:15 2021
Timers Off: Wed Jun  9 21:36:20 2021

Wall Time:        5.04 seconds

                                                       Time (seconds)
Module                                       User      System        Wall        Calls

--------------------------------------------------------------------------------------

**************************************************************************************

Host: cfeld-pcx14803

Timers On : Wed Jun  9 21:37:06 2021
Timers Off: Wed Jun  9 21:37:16 2021

Wall Time:       10.71 seconds

                                                       Time (seconds)
Module                                       User      System        Wall        Calls

--------------------------------------------------------------------------------------

**************************************************************************************

Host: cfeld-pcx14803

Timers On : Wed Jun  9 21:38:00 2021
Timers Off: Wed Jun  9 21:38:07 2021

Wall Time:        6.43 seconds

                                                       Time (seconds)
Module                                       User      System        Wall        Calls

--------------------------------------------------------------------------------------

**************************************************************************************

Host: cfeld-pcx14803

Timers On : Wed Jun  9 21:38:32 2021
Timers Off: Wed Jun  9 21:38:38 2021

Wall Time:        5.96 seconds

                                                       Time (seconds)
Module                                       User      System        Wall        Calls

--------------------------------------------------------------------------------------

**************************************************************************************

Host: cfeld-pcx14803

Timers On : Wed Jun  9 21:40:49 2021
Timers Off: Wed Jun  9 21:40:58 2021

Wall Time:        9.04 seconds

                                                       Time (seconds)
Module                                       User      System        Wall        Calls

--------------------------------------------------------------------------------------

**************************************************************************************

Host: cfeld-pcx14803

Timers On : Wed Jun  9 21:43:15 2021
Timers Off: Wed Jun  9 21:43:29 2021

Wall Time:       14.13 seconds

                                                       Time (seconds)
Module                                       User      System        Wall        Calls

--------------------------------------------------------------------------------------

**************************************************************************************

Host: cfeld-pcx14803

Timers On : Wed Jun  9 21:44:49 2021
Timers Off: Wed Jun  9 21:45:30 2021

Wall Time:       41.07 seconds

                                                       Time (seconds)
Module                                       User      System        Wall        Calls

--------------------------------------------------------------------------------------

**************************************************************************************

Host: cfeld-pcx14803

Timers On : Wed Jun  9 21:47:10 2021
Timers Off: Wed Jun  9 21:47:55 2021

Wall Time:       45.33 seconds

                                                       Time (seconds)
Module                                       User      System        Wall        Calls

--------------------------------------------------------------------------------------

**************************************************************************************
