
Host: cfeld-pcx14803

Timers On : Wed Jun  9 21:36:15 2021
Timers Off: Wed Jun  9 21:36:20 2021

Wall Time:        5.04 seconds

                                                       Time (seconds)
Module                                       User      System        Wall        Calls

--------------------------------------------------------------------------------------

**************************************************************************************

Host: cfeld-pcx14803

Timers On : Wed Jun  9 21:37:06 2021
Timers Off: Wed Jun  9 21:37:16 2021

Wall Time:       10.71 seconds

                                                       Time (seconds)
Module                                       User      System        Wall        Calls

--------------------------------------------------------------------------------------

**************************************************************************************

Host: cfeld-pcx14803

Timers On : Wed Jun  9 21:38:00 2021
Timers Off: Wed Jun  9 21:38:07 2021

Wall Time:        6.43 seconds

                                                       Time (seconds)
Module                                       User      System        Wall        Calls

--------------------------------------------------------------------------------------

**************************************************************************************

Host: cfeld-pcx14803

Timers On : Wed Jun  9 21:38:32 2021
Timers Off: Wed Jun  9 21:38:38 2021

Wall Time:        5.96 seconds

                                                       Time (seconds)
Module                                       User      System        Wall        Calls

--------------------------------------------------------------------------------------

**************************************************************************************

Host: cfeld-pcx14803

Timers On : Wed Jun  9 21:40:49 2021
Timers Off: Wed Jun  9 21:40:58 2021

Wall Time:        9.04 seconds

                                                       Time (seconds)
Module                                       User      System        Wall        Calls

--------------------------------------------------------------------------------------

**************************************************************************************

Host: cfeld-pcx14803

Timers On : Wed Jun  9 21:48:16 2021
Timers Off: Wed Jun  9 21:49:00 2021

Wall Time:       43.68 seconds

                                                       Time (seconds)
Module                                       User      System        Wall        Calls

--------------------------------------------------------------------------------------

**************************************************************************************

Host: cfeld-pcx14803

Timers On : Wed Jun  9 21:49:38 2021
Timers Off: Wed Jun  9 21:50:19 2021

Wall Time:       40.76 seconds

                                                       Time (seconds)
Module                                       User      System        Wall        Calls

--------------------------------------------------------------------------------------

**************************************************************************************

Host: cfeld-pcx14803

Timers On : Wed Jun  9 21:51:40 2021
Timers Off: Wed Jun  9 21:51:48 2021

Wall Time:        7.49 seconds

                                                       Time (seconds)
Module                                       User      System        Wall        Calls

--------------------------------------------------------------------------------------

**************************************************************************************

Host: cfeld-pcx14803

Timers On : Wed Jun  9 21:51:51 2021
Timers Off: Wed Jun  9 21:53:05 2021

Wall Time:       73.96 seconds

                                                       Time (seconds)
Module                                       User      System        Wall        Calls

--------------------------------------------------------------------------------------

**************************************************************************************

Host: cfeld-pcx14803

Timers On : Wed Jun  9 21:53:14 2021
Timers Off: Wed Jun  9 21:54:04 2021

Wall Time:       50.21 seconds

                                                       Time (seconds)
Module                                       User      System        Wall        Calls

--------------------------------------------------------------------------------------

**************************************************************************************

Host: cfeld-pcx14803

Timers On : Wed Jun  9 21:54:34 2021
Timers Off: Wed Jun  9 21:54:39 2021

Wall Time:        4.84 seconds

                                                       Time (seconds)
Module                                       User      System        Wall        Calls

--------------------------------------------------------------------------------------

**************************************************************************************

Host: cfeld-pcx14803

Timers On : Wed Jun  9 21:55:40 2021
Timers Off: Wed Jun  9 21:56:40 2021

Wall Time:       60.17 seconds

                                                       Time (seconds)
Module                                       User      System        Wall        Calls

--------------------------------------------------------------------------------------

**************************************************************************************

Host: cfeld-pcx14803

Timers On : Wed Jun  9 21:57:29 2021
Timers Off: Wed Jun  9 21:58:14 2021

Wall Time:       44.96 seconds

                                                       Time (seconds)
Module                                       User      System        Wall        Calls

--------------------------------------------------------------------------------------

**************************************************************************************

Host: cfeld-pcx14803

Timers On : Wed Jun  9 22:07:09 2021
Timers Off: Wed Jun  9 22:07:48 2021

Wall Time:       39.41 seconds

                                                       Time (seconds)
Module                                       User      System        Wall        Calls

--------------------------------------------------------------------------------------

**************************************************************************************

Host: cfeld-pcx14803

Timers On : Wed Jun  9 22:11:22 2021
Timers Off: Wed Jun  9 22:12:03 2021

Wall Time:       40.39 seconds

                                                       Time (seconds)
Module                                       User      System        Wall        Calls

--------------------------------------------------------------------------------------

**************************************************************************************

Host: cfeld-pcx14803

Timers On : Wed Jun  9 22:14:20 2021
Timers Off: Wed Jun  9 22:14:28 2021

Wall Time:        7.29 seconds

                                                       Time (seconds)
Module                                       User      System        Wall        Calls

--------------------------------------------------------------------------------------

**************************************************************************************

Host: cfeld-pcx14803

Timers On : Wed Jun  9 22:14:30 2021
Timers Off: Wed Jun  9 22:15:41 2021

Wall Time:       71.16 seconds

                                                       Time (seconds)
Module                                       User      System        Wall        Calls

--------------------------------------------------------------------------------------

**************************************************************************************

Host: cfeld-pcx14803

Timers On : Wed Jun  9 22:16:54 2021
Timers Off: Wed Jun  9 22:17:01 2021

Wall Time:        7.27 seconds

                                                       Time (seconds)
Module                                       User      System        Wall        Calls

--------------------------------------------------------------------------------------

**************************************************************************************

Host: cfeld-pcx14803

Timers On : Thu Jun 10 07:47:54 2021
Timers Off: Thu Jun 10 07:47:59 2021

Wall Time:        5.31 seconds

                                                       Time (seconds)
Module                                       User      System        Wall        Calls

--------------------------------------------------------------------------------------

**************************************************************************************

Host: cfeld-pcx14803

Timers On : Thu Jun 10 07:48:22 2021
Timers Off: Thu Jun 10 07:48:26 2021

Wall Time:        4.59 seconds

                                                       Time (seconds)
Module                                       User      System        Wall        Calls

--------------------------------------------------------------------------------------

**************************************************************************************

Host: cfeld-pcx14803

Timers On : Thu Jun 10 07:51:37 2021
Timers Off: Thu Jun 10 07:51:51 2021

Wall Time:       13.82 seconds

                                                       Time (seconds)
Module                                       User      System        Wall        Calls

--------------------------------------------------------------------------------------

**************************************************************************************

Host: cfeld-pcx14803

Timers On : Thu Jun 10 07:51:59 2021
Timers Off: Thu Jun 10 07:52:31 2021

Wall Time:       31.96 seconds

                                                       Time (seconds)
Module                                       User      System        Wall        Calls

--------------------------------------------------------------------------------------

**************************************************************************************

Host: cfeld-pcx14803

Timers On : Thu Jun 10 07:54:51 2021
Timers Off: Thu Jun 10 07:56:15 2021

Wall Time:       84.04 seconds

                                                       Time (seconds)
Module                                       User      System        Wall        Calls

--------------------------------------------------------------------------------------

**************************************************************************************

Host: cfeld-pcx14803

Timers On : Thu Jun 10 07:56:23 2021
Timers Off: Thu Jun 10 07:58:02 2021

Wall Time:       99.42 seconds

                                                       Time (seconds)
Module                                       User      System        Wall        Calls

--------------------------------------------------------------------------------------

**************************************************************************************

Host: cfeld-pcx14803

Timers On : Thu Jun 10 07:58:14 2021
Timers Off: Thu Jun 10 08:07:30 2021

Wall Time:      555.83 seconds

                                                       Time (seconds)
Module                                       User      System        Wall        Calls

--------------------------------------------------------------------------------------

**************************************************************************************

Host: cfeld-pcx14803

Timers On : Thu Jun 10 08:07:42 2021
Timers Off: Thu Jun 10 08:08:01 2021

Wall Time:       18.92 seconds

                                                       Time (seconds)
Module                                       User      System        Wall        Calls

--------------------------------------------------------------------------------------

**************************************************************************************

Host: cfeld-pcx14803

Timers On : Thu Jun 10 08:08:11 2021
Timers Off: Thu Jun 10 08:08:37 2021

Wall Time:       25.92 seconds

                                                       Time (seconds)
Module                                       User      System        Wall        Calls

--------------------------------------------------------------------------------------

**************************************************************************************

Host: cfeld-pcx14803

Timers On : Thu Jun 10 08:08:44 2021
Timers Off: Thu Jun 10 08:09:05 2021

Wall Time:       21.03 seconds

                                                       Time (seconds)
Module                                       User      System        Wall        Calls

--------------------------------------------------------------------------------------

**************************************************************************************

Host: cfeld-pcx14803

Timers On : Thu Jun 10 21:37:54 2021
Timers Off: Thu Jun 10 21:38:15 2021

Wall Time:       21.84 seconds

                                                       Time (seconds)
Module                                       User      System        Wall        Calls

--------------------------------------------------------------------------------------

**************************************************************************************

Host: cfeld-pcx14803

Timers On : Thu Jun 10 21:38:32 2021
Timers Off: Thu Jun 10 21:39:33 2021

Wall Time:       60.98 seconds

                                                       Time (seconds)
Module                                       User      System        Wall        Calls

--------------------------------------------------------------------------------------

**************************************************************************************

Host: cfeld-pcx14803

Timers On : Thu Jun 10 21:39:46 2021
Timers Off: Thu Jun 10 21:39:58 2021

Wall Time:       11.76 seconds

                                                       Time (seconds)
Module                                       User      System        Wall        Calls

--------------------------------------------------------------------------------------

**************************************************************************************

Host: cfeld-pcx14803

Timers On : Thu Jun 10 21:40:28 2021
Timers Off: Thu Jun 10 21:40:57 2021

Wall Time:       29.57 seconds

                                                       Time (seconds)
Module                                       User      System        Wall        Calls

--------------------------------------------------------------------------------------

**************************************************************************************

Host: cfeld-pcx14803

Timers On : Thu Jun 10 21:41:14 2021
Timers Off: Thu Jun 10 21:43:09 2021

Wall Time:      115.36 seconds

                                                       Time (seconds)
Module                                       User      System        Wall        Calls

--------------------------------------------------------------------------------------

**************************************************************************************

Host: cfeld-pcx14803

Timers On : Thu Jun 10 21:43:52 2021
Timers Off: Thu Jun 10 21:44:03 2021

Wall Time:       10.81 seconds

                                                       Time (seconds)
Module                                       User      System        Wall        Calls

--------------------------------------------------------------------------------------

**************************************************************************************

Host: cfeld-pcx14803

Timers On : Thu Jun 10 21:44:56 2021
Timers Off: Thu Jun 10 21:48:49 2021

Wall Time:      233.39 seconds

                                                       Time (seconds)
Module                                       User      System        Wall        Calls

--------------------------------------------------------------------------------------

**************************************************************************************
