
Host: ezak

Timers On : Tue Sep 14 16:19:19 2021
Timers Off: Tue Sep 14 16:20:33 2021

Wall Time:       74.03 seconds

                                                       Time (seconds)
Module                                       User      System        Wall        Calls

--------------------------------------------------------------------------------------

**************************************************************************************
