
Host: cfeld-pcx14803

Timers On : Tue Jun 15 16:02:19 2021
Timers Off: Tue Jun 15 16:02:27 2021

Wall Time:        7.09 seconds

                                                       Time (seconds)
Module                                       User      System        Wall        Calls

--------------------------------------------------------------------------------------

**************************************************************************************
