
Host: ezak

Timers On : Tue Sep 14 16:21:51 2021
Timers Off: Tue Sep 14 16:23:06 2021

Wall Time:       75.27 seconds

                                                       Time (seconds)
Module                                       User      System        Wall        Calls

--------------------------------------------------------------------------------------

**************************************************************************************
