
Host: cfeld-pcx14803

Timers On : Tue Jun 15 12:31:04 2021
Timers Off: Tue Jun 15 12:31:11 2021

Wall Time:        6.55 seconds

                                                       Time (seconds)
Module                                       User      System        Wall        Calls

--------------------------------------------------------------------------------------

**************************************************************************************
