
Host: ezak

Timers On : Tue Sep 14 16:25:54 2021
Timers Off: Tue Sep 14 16:27:17 2021

Wall Time:       83.12 seconds

                                                       Time (seconds)
Module                                       User      System        Wall        Calls

--------------------------------------------------------------------------------------

**************************************************************************************
