
Host: cfeld-pcx14803

Timers On : Tue Jun 15 15:43:31 2021
Timers Off: Tue Jun 15 15:43:41 2021

Wall Time:        9.92 seconds

                                                       Time (seconds)
Module                                       User      System        Wall        Calls

--------------------------------------------------------------------------------------

**************************************************************************************

Host: cfeld-pcx14803

Timers On : Tue Jun 15 15:43:49 2021
Timers Off: Tue Jun 15 15:43:58 2021

Wall Time:        9.11 seconds

                                                       Time (seconds)
Module                                       User      System        Wall        Calls

--------------------------------------------------------------------------------------

**************************************************************************************
