
Host: cfeld-pcx14803

Timers On : Mon Jun 14 16:54:47 2021
Timers Off: Mon Jun 14 16:54:59 2021

Wall Time:       12.33 seconds

                                                       Time (seconds)
Module                                       User      System        Wall        Calls

--------------------------------------------------------------------------------------

**************************************************************************************

Host: cfeld-pcx14803

Timers On : Mon Jun 14 16:56:54 2021
Timers Off: Mon Jun 14 16:57:01 2021

Wall Time:        6.82 seconds

                                                       Time (seconds)
Module                                       User      System        Wall        Calls

--------------------------------------------------------------------------------------

**************************************************************************************

Host: cfeld-pcx14803

Timers On : Mon Jun 14 17:09:05 2021
Timers Off: Mon Jun 14 17:09:10 2021

Wall Time:        5.40 seconds

                                                       Time (seconds)
Module                                       User      System        Wall        Calls

--------------------------------------------------------------------------------------

**************************************************************************************
