
Host: ezak

Timers On : Tue Sep 14 17:06:50 2021
Timers Off: Tue Sep 14 17:09:57 2021

Wall Time:      186.89 seconds

                                                       Time (seconds)
Module                                       User      System        Wall        Calls

--------------------------------------------------------------------------------------

**************************************************************************************
