
Host: cfeld-pcx14803

Timers On : Tue Jun 15 17:21:59 2021
Timers Off: Tue Jun 15 17:22:06 2021

Wall Time:        7.65 seconds

                                                       Time (seconds)
Module                                       User      System        Wall        Calls

--------------------------------------------------------------------------------------

**************************************************************************************
