
Host: cfeld-pcx14803

Timers On : Wed Jun  9 09:10:14 2021
Timers Off: Wed Jun  9 09:10:21 2021

Wall Time:        7.36 seconds

                                                       Time (seconds)
Module                                       User      System        Wall        Calls

--------------------------------------------------------------------------------------

**************************************************************************************
