
Host: cfeld-pcx14803

Timers On : Fri Jul 30 09:52:57 2021
Timers Off: Fri Jul 30 09:52:59 2021

Wall Time:        1.88 seconds

                                                       Time (seconds)
Module                                       User      System        Wall        Calls

--------------------------------------------------------------------------------------

**************************************************************************************

Host: cfeld-pcx14803

Timers On : Fri Jul 30 09:53:18 2021
Timers Off: Fri Jul 30 09:54:02 2021

Wall Time:       43.85 seconds

                                                       Time (seconds)
Module                                       User      System        Wall        Calls

--------------------------------------------------------------------------------------

**************************************************************************************

Host: cfeld-pcx14803

Timers On : Fri Jul 30 09:54:08 2021
Timers Off: Fri Jul 30 09:54:22 2021

Wall Time:       14.02 seconds

                                                       Time (seconds)
Module                                       User      System        Wall        Calls

--------------------------------------------------------------------------------------

**************************************************************************************

Host: cfeld-pcx14803

Timers On : Fri Jul 30 09:54:52 2021
Timers Off: Fri Jul 30 09:55:06 2021

Wall Time:       13.27 seconds

                                                       Time (seconds)
Module                                       User      System        Wall        Calls

--------------------------------------------------------------------------------------

**************************************************************************************

Host: cfeld-pcx14803

Timers On : Fri Jul 30 09:55:14 2021
Timers Off: Fri Jul 30 09:55:28 2021

Wall Time:       14.56 seconds

                                                       Time (seconds)
Module                                       User      System        Wall        Calls

--------------------------------------------------------------------------------------

**************************************************************************************

Host: cfeld-pcx14803

Timers On : Fri Jul 30 09:55:58 2021
Timers Off: Fri Jul 30 09:56:46 2021

Wall Time:       48.10 seconds

                                                       Time (seconds)
Module                                       User      System        Wall        Calls

--------------------------------------------------------------------------------------

**************************************************************************************

Host: cfeld-pcx14803

Timers On : Fri Jul 30 10:12:36 2021
Timers Off: Fri Jul 30 10:12:38 2021

Wall Time:        2.08 seconds

                                                       Time (seconds)
Module                                       User      System        Wall        Calls

--------------------------------------------------------------------------------------

**************************************************************************************

Host: cfeld-pcx14803

Timers On : Fri Jul 30 10:13:02 2021
Timers Off: Fri Jul 30 10:16:23 2021

Wall Time:      201.56 seconds

                                                       Time (seconds)
Module                                       User      System        Wall        Calls

--------------------------------------------------------------------------------------

**************************************************************************************

Host: cfeld-pcx14803

Timers On : Fri Jul 30 12:13:27 2021
Timers Off: Fri Jul 30 12:13:29 2021

Wall Time:        1.80 seconds

                                                       Time (seconds)
Module                                       User      System        Wall        Calls

--------------------------------------------------------------------------------------

**************************************************************************************

Host: cfeld-pcx14803

Timers On : Fri Jul 30 12:14:20 2021
Timers Off: Fri Jul 30 12:14:21 2021

Wall Time:        1.08 seconds

                                                       Time (seconds)
Module                                       User      System        Wall        Calls

--------------------------------------------------------------------------------------

**************************************************************************************

Host: cfeld-pcx14803

Timers On : Fri Jul 30 12:14:53 2021
Timers Off: Fri Jul 30 12:14:55 2021

Wall Time:        1.47 seconds

                                                       Time (seconds)
Module                                       User      System        Wall        Calls

--------------------------------------------------------------------------------------

**************************************************************************************

Host: cfeld-pcx14803

Timers On : Fri Jul 30 12:15:22 2021
Timers Off: Fri Jul 30 12:15:23 2021

Wall Time:        1.39 seconds

                                                       Time (seconds)
Module                                       User      System        Wall        Calls

--------------------------------------------------------------------------------------

**************************************************************************************

Host: cfeld-pcx14803

Timers On : Fri Jul 30 12:15:57 2021
Timers Off: Fri Jul 30 12:16:09 2021

Wall Time:       11.93 seconds

                                                       Time (seconds)
Module                                       User      System        Wall        Calls

--------------------------------------------------------------------------------------

**************************************************************************************

Host: cfeld-pcx14803

Timers On : Fri Jul 30 12:17:21 2021
Timers Off: Fri Jul 30 12:17:31 2021

Wall Time:       10.27 seconds

                                                       Time (seconds)
Module                                       User      System        Wall        Calls

--------------------------------------------------------------------------------------

**************************************************************************************

Host: cfeld-pcx14803

Timers On : Fri Jul 30 12:18:16 2021
Timers Off: Fri Jul 30 12:18:22 2021

Wall Time:        5.87 seconds

                                                       Time (seconds)
Module                                       User      System        Wall        Calls

--------------------------------------------------------------------------------------

**************************************************************************************

Host: cfeld-pcx14803

Timers On : Mon Aug  2 12:25:35 2021
Timers Off: Mon Aug  2 12:25:40 2021

Wall Time:        4.64 seconds

                                                       Time (seconds)
Module                                       User      System        Wall        Calls

--------------------------------------------------------------------------------------

**************************************************************************************

Host: cfeld-pcx14803

Timers On : Tue Aug  3 09:03:02 2021
Timers Off: Tue Aug  3 09:03:03 2021

Wall Time:        1.15 seconds

                                                       Time (seconds)
Module                                       User      System        Wall        Calls

--------------------------------------------------------------------------------------

**************************************************************************************

Host: cfeld-pcx14803

Timers On : Tue Aug  3 09:05:48 2021
Timers Off: Tue Aug  3 09:06:05 2021

Wall Time:       17.13 seconds

                                                       Time (seconds)
Module                                       User      System        Wall        Calls

--------------------------------------------------------------------------------------

**************************************************************************************

Host: cfeld-pcx14803

Timers On : Tue Aug  3 09:06:48 2021
Timers Off: Tue Aug  3 09:06:52 2021

Wall Time:        4.00 seconds

                                                       Time (seconds)
Module                                       User      System        Wall        Calls

--------------------------------------------------------------------------------------

**************************************************************************************

Host: cfeld-pcx14803

Timers On : Tue Aug  3 09:07:06 2021
Timers Off: Tue Aug  3 09:07:13 2021

Wall Time:        6.46 seconds

                                                       Time (seconds)
Module                                       User      System        Wall        Calls

--------------------------------------------------------------------------------------

**************************************************************************************

Host: cfeld-pcx14803

Timers On : Tue Aug  3 09:07:24 2021
Timers Off: Tue Aug  3 09:07:55 2021

Wall Time:       31.51 seconds

                                                       Time (seconds)
Module                                       User      System        Wall        Calls

--------------------------------------------------------------------------------------

**************************************************************************************

Host: cfeld-pcx14803

Timers On : Tue Aug  3 09:41:31 2021
Timers Off: Tue Aug  3 09:43:26 2021

Wall Time:      114.92 seconds

                                                       Time (seconds)
Module                                       User      System        Wall        Calls

--------------------------------------------------------------------------------------

**************************************************************************************

Host: cfeld-pcx14803

Timers On : Tue Aug  3 10:21:20 2021
Timers Off: Tue Aug  3 10:21:40 2021

Wall Time:       20.02 seconds

                                                       Time (seconds)
Module                                       User      System        Wall        Calls

--------------------------------------------------------------------------------------

**************************************************************************************
