
Host: cfeld-pcx14803

Timers On : Wed May  5 09:03:29 2021
Timers Off: Wed May  5 09:03:37 2021

Wall Time:        7.77 seconds

                                                       Time (seconds)
Module                                       User      System        Wall        Calls

--------------------------------------------------------------------------------------

**************************************************************************************

Host: cfeld-pcx14803

Timers On : Wed May  5 09:10:31 2021
Timers Off: Wed May  5 09:10:32 2021

Wall Time:        1.09 seconds

                                                       Time (seconds)
Module                                       User      System        Wall        Calls

--------------------------------------------------------------------------------------

**************************************************************************************

Host: cfeld-pcx14803

Timers On : Wed May  5 10:11:27 2021
Timers Off: Wed May  5 10:11:56 2021

Wall Time:       28.33 seconds

                                                       Time (seconds)
Module                                       User      System        Wall        Calls

--------------------------------------------------------------------------------------

**************************************************************************************

Host: cfeld-pcx14803

Timers On : Wed May  5 12:52:56 2021
Timers Off: Wed May  5 13:15:37 2021

Wall Time:     1360.89 seconds

                                                       Time (seconds)
Module                                       User      System        Wall        Calls

--------------------------------------------------------------------------------------

**************************************************************************************

Host: cfeld-pcx14803

Timers On : Wed May  5 19:01:55 2021
Timers Off: Thu May  6 09:30:42 2021

Wall Time:    19575.53 seconds

                                                       Time (seconds)
Module                                       User      System        Wall        Calls

--------------------------------------------------------------------------------------

**************************************************************************************

Host: cfeld-pcx14803

Timers On : Thu May  6 14:17:05 2021
Timers Off: Thu May  6 14:17:13 2021

Wall Time:        8.54 seconds

                                                       Time (seconds)
Module                                       User      System        Wall        Calls

--------------------------------------------------------------------------------------

**************************************************************************************

Host: cfeld-pcx14803

Timers On : Thu May  6 14:17:29 2021
Timers Off: Thu May  6 14:17:34 2021

Wall Time:        5.20 seconds

                                                       Time (seconds)
Module                                       User      System        Wall        Calls

--------------------------------------------------------------------------------------

**************************************************************************************

Host: cfeld-pcx14803

Timers On : Thu May  6 14:17:47 2021
Timers Off: Thu May  6 14:17:51 2021

Wall Time:        4.74 seconds

                                                       Time (seconds)
Module                                       User      System        Wall        Calls

--------------------------------------------------------------------------------------

**************************************************************************************

Host: cfeld-pcx14803

Timers On : Thu May  6 14:18:23 2021
Timers Off: Thu May  6 14:18:29 2021

Wall Time:        6.23 seconds

                                                       Time (seconds)
Module                                       User      System        Wall        Calls

--------------------------------------------------------------------------------------

**************************************************************************************

Host: cfeld-pcx14803

Timers On : Thu May  6 14:18:51 2021
Timers Off: Thu May  6 14:18:56 2021

Wall Time:        4.70 seconds

                                                       Time (seconds)
Module                                       User      System        Wall        Calls

--------------------------------------------------------------------------------------

**************************************************************************************

Host: cfeld-pcx14803

Timers On : Thu May  6 14:19:38 2021
Timers Off: Thu May  6 14:19:47 2021

Wall Time:        8.17 seconds

                                                       Time (seconds)
Module                                       User      System        Wall        Calls

--------------------------------------------------------------------------------------

**************************************************************************************

Host: cfeld-pcx14803

Timers On : Thu May  6 14:20:00 2021
Timers Off: Thu May  6 14:20:06 2021

Wall Time:        5.87 seconds

                                                       Time (seconds)
Module                                       User      System        Wall        Calls

--------------------------------------------------------------------------------------

**************************************************************************************

Host: cfeld-pcx14803

Timers On : Thu May  6 14:20:32 2021
Timers Off: Thu May  6 14:20:38 2021

Wall Time:        5.78 seconds

                                                       Time (seconds)
Module                                       User      System        Wall        Calls

--------------------------------------------------------------------------------------

**************************************************************************************

Host: cfeld-pcx14803

Timers On : Thu May  6 14:20:49 2021
Timers Off: Thu May  6 14:20:56 2021

Wall Time:        7.49 seconds

                                                       Time (seconds)
Module                                       User      System        Wall        Calls

--------------------------------------------------------------------------------------

**************************************************************************************

Host: cfeld-pcx14803

Timers On : Thu May  6 14:21:01 2021
Timers Off: Thu May  6 14:21:08 2021

Wall Time:        6.84 seconds

                                                       Time (seconds)
Module                                       User      System        Wall        Calls

--------------------------------------------------------------------------------------

**************************************************************************************

Host: cfeld-pcx14803

Timers On : Thu May  6 14:21:15 2021
Timers Off: Thu May  6 14:21:21 2021

Wall Time:        6.34 seconds

                                                       Time (seconds)
Module                                       User      System        Wall        Calls

--------------------------------------------------------------------------------------

**************************************************************************************

Host: cfeld-pcx14803

Timers On : Thu May  6 14:21:38 2021
Timers Off: Thu May  6 14:21:44 2021

Wall Time:        6.42 seconds

                                                       Time (seconds)
Module                                       User      System        Wall        Calls

--------------------------------------------------------------------------------------

**************************************************************************************

Host: cfeld-pcx14803

Timers On : Thu May  6 14:21:48 2021
Timers Off: Thu May  6 14:21:53 2021

Wall Time:        5.31 seconds

                                                       Time (seconds)
Module                                       User      System        Wall        Calls

--------------------------------------------------------------------------------------

**************************************************************************************

Host: cfeld-pcx14803

Timers On : Thu May  6 14:22:07 2021
Timers Off: Thu May  6 14:22:13 2021

Wall Time:        6.10 seconds

                                                       Time (seconds)
Module                                       User      System        Wall        Calls

--------------------------------------------------------------------------------------

**************************************************************************************

Host: cfeld-pcx14803

Timers On : Thu May  6 14:22:30 2021
Timers Off: Thu May  6 14:22:34 2021

Wall Time:        4.62 seconds

                                                       Time (seconds)
Module                                       User      System        Wall        Calls

--------------------------------------------------------------------------------------

**************************************************************************************

Host: cfeld-pcx14803

Timers On : Thu May  6 14:22:44 2021
Timers Off: Thu May  6 14:22:49 2021

Wall Time:        4.96 seconds

                                                       Time (seconds)
Module                                       User      System        Wall        Calls

--------------------------------------------------------------------------------------

**************************************************************************************

Host: cfeld-pcx14803

Timers On : Thu May  6 14:23:17 2021
Timers Off: Thu May  6 14:23:22 2021

Wall Time:        4.51 seconds

                                                       Time (seconds)
Module                                       User      System        Wall        Calls

--------------------------------------------------------------------------------------

**************************************************************************************

Host: cfeld-pcx14803

Timers On : Thu May  6 14:23:33 2021
Timers Off: Thu May  6 14:23:37 2021

Wall Time:        4.42 seconds

                                                       Time (seconds)
Module                                       User      System        Wall        Calls

--------------------------------------------------------------------------------------

**************************************************************************************

Host: cfeld-pcx14803

Timers On : Thu May  6 14:24:38 2021
Timers Off: Thu May  6 14:24:46 2021

Wall Time:        7.45 seconds

                                                       Time (seconds)
Module                                       User      System        Wall        Calls

--------------------------------------------------------------------------------------

**************************************************************************************

Host: cfeld-pcx14803

Timers On : Thu May  6 14:25:34 2021
Timers Off: Thu May  6 14:25:43 2021

Wall Time:        8.93 seconds

                                                       Time (seconds)
Module                                       User      System        Wall        Calls

--------------------------------------------------------------------------------------

**************************************************************************************

Host: cfeld-pcx14803

Timers On : Thu May  6 14:26:05 2021
Timers Off: Thu May  6 14:26:10 2021

Wall Time:        5.63 seconds

                                                       Time (seconds)
Module                                       User      System        Wall        Calls

--------------------------------------------------------------------------------------

**************************************************************************************

Host: cfeld-pcx14803

Timers On : Thu May  6 14:26:20 2021
Timers Off: Thu May  6 14:26:27 2021

Wall Time:        6.32 seconds

                                                       Time (seconds)
Module                                       User      System        Wall        Calls

--------------------------------------------------------------------------------------

**************************************************************************************

Host: cfeld-pcx14803

Timers On : Thu May  6 14:27:00 2021
Timers Off: Thu May  6 14:27:05 2021

Wall Time:        4.78 seconds

                                                       Time (seconds)
Module                                       User      System        Wall        Calls

--------------------------------------------------------------------------------------

**************************************************************************************

Host: cfeld-pcx14803

Timers On : Thu May  6 14:27:15 2021
Timers Off: Thu May  6 14:27:20 2021

Wall Time:        4.69 seconds

                                                       Time (seconds)
Module                                       User      System        Wall        Calls

--------------------------------------------------------------------------------------

**************************************************************************************

Host: cfeld-pcx14803

Timers On : Thu May  6 14:27:28 2021
Timers Off: Thu May  6 14:27:33 2021

Wall Time:        5.07 seconds

                                                       Time (seconds)
Module                                       User      System        Wall        Calls

--------------------------------------------------------------------------------------

**************************************************************************************

Host: cfeld-pcx14803

Timers On : Thu May  6 14:28:25 2021
Timers Off: Thu May  6 14:28:31 2021

Wall Time:        5.92 seconds

                                                       Time (seconds)
Module                                       User      System        Wall        Calls

--------------------------------------------------------------------------------------

**************************************************************************************

Host: cfeld-pcx14803

Timers On : Thu May  6 14:28:42 2021
Timers Off: Thu May  6 14:28:47 2021

Wall Time:        4.59 seconds

                                                       Time (seconds)
Module                                       User      System        Wall        Calls

--------------------------------------------------------------------------------------

**************************************************************************************

Host: cfeld-pcx14803

Timers On : Thu May  6 14:28:52 2021
Timers Off: Thu May  6 14:28:58 2021

Wall Time:        5.74 seconds

                                                       Time (seconds)
Module                                       User      System        Wall        Calls

--------------------------------------------------------------------------------------

**************************************************************************************

Host: cfeld-pcx14803

Timers On : Thu May  6 14:29:53 2021
Timers Off: Thu May  6 14:30:00 2021

Wall Time:        7.25 seconds

                                                       Time (seconds)
Module                                       User      System        Wall        Calls

--------------------------------------------------------------------------------------

**************************************************************************************

Host: cfeld-pcx14803

Timers On : Thu May  6 14:30:06 2021
Timers Off: Thu May  6 14:30:10 2021

Wall Time:        4.72 seconds

                                                       Time (seconds)
Module                                       User      System        Wall        Calls

--------------------------------------------------------------------------------------

**************************************************************************************

Host: cfeld-pcx14803

Timers On : Thu May  6 14:31:07 2021
Timers Off: Thu May  6 14:31:12 2021

Wall Time:        5.00 seconds

                                                       Time (seconds)
Module                                       User      System        Wall        Calls

--------------------------------------------------------------------------------------

**************************************************************************************

Host: cfeld-pcx14803

Timers On : Thu May  6 14:32:08 2021
Timers Off: Thu May  6 14:32:13 2021

Wall Time:        5.02 seconds

                                                       Time (seconds)
Module                                       User      System        Wall        Calls

--------------------------------------------------------------------------------------

**************************************************************************************

Host: cfeld-pcx14803

Timers On : Thu May  6 14:32:38 2021
Timers Off: Thu May  6 14:32:44 2021

Wall Time:        6.04 seconds

                                                       Time (seconds)
Module                                       User      System        Wall        Calls

--------------------------------------------------------------------------------------

**************************************************************************************

Host: cfeld-pcx14803

Timers On : Thu May  6 14:33:10 2021
Timers Off: Thu May  6 14:33:14 2021

Wall Time:        4.52 seconds

                                                       Time (seconds)
Module                                       User      System        Wall        Calls

--------------------------------------------------------------------------------------

**************************************************************************************

Host: cfeld-pcx14803

Timers On : Thu May  6 14:36:14 2021
Timers Off: Thu May  6 14:36:22 2021

Wall Time:        8.03 seconds

                                                       Time (seconds)
Module                                       User      System        Wall        Calls

--------------------------------------------------------------------------------------

**************************************************************************************

Host: cfeld-pcx14803

Timers On : Thu May  6 14:36:42 2021
Timers Off: Thu May  6 14:36:48 2021

Wall Time:        6.10 seconds

                                                       Time (seconds)
Module                                       User      System        Wall        Calls

--------------------------------------------------------------------------------------

**************************************************************************************

Host: cfeld-pcx14803

Timers On : Thu May  6 14:36:51 2021
Timers Off: Thu May  6 14:36:57 2021

Wall Time:        6.05 seconds

                                                       Time (seconds)
Module                                       User      System        Wall        Calls

--------------------------------------------------------------------------------------

**************************************************************************************

Host: cfeld-pcx14803

Timers On : Thu May  6 14:38:50 2021
Timers Off: Thu May  6 14:38:56 2021

Wall Time:        6.12 seconds

                                                       Time (seconds)
Module                                       User      System        Wall        Calls

--------------------------------------------------------------------------------------

**************************************************************************************

Host: cfeld-pcx14803

Timers On : Thu May  6 14:40:15 2021
Timers Off: Thu May  6 14:40:23 2021

Wall Time:        7.65 seconds

                                                       Time (seconds)
Module                                       User      System        Wall        Calls

--------------------------------------------------------------------------------------

**************************************************************************************

Host: cfeld-pcx14803

Timers On : Thu May  6 14:41:25 2021
Timers Off: Thu May  6 14:41:30 2021

Wall Time:        5.58 seconds

                                                       Time (seconds)
Module                                       User      System        Wall        Calls

--------------------------------------------------------------------------------------

**************************************************************************************

Host: cfeld-pcx14803

Timers On : Thu May  6 14:42:15 2021
Timers Off: Thu May  6 14:42:21 2021

Wall Time:        6.58 seconds

                                                       Time (seconds)
Module                                       User      System        Wall        Calls

--------------------------------------------------------------------------------------

**************************************************************************************

Host: cfeld-pcx14803

Timers On : Thu May  6 14:42:44 2021
Timers Off: Thu May  6 14:42:49 2021

Wall Time:        5.27 seconds

                                                       Time (seconds)
Module                                       User      System        Wall        Calls

--------------------------------------------------------------------------------------

**************************************************************************************

Host: cfeld-pcx14803

Timers On : Thu May  6 14:42:58 2021
Timers Off: Thu May  6 14:43:03 2021

Wall Time:        5.10 seconds

                                                       Time (seconds)
Module                                       User      System        Wall        Calls

--------------------------------------------------------------------------------------

**************************************************************************************

Host: cfeld-pcx14803

Timers On : Thu May  6 14:43:27 2021
Timers Off: Thu May  6 14:43:33 2021

Wall Time:        5.24 seconds

                                                       Time (seconds)
Module                                       User      System        Wall        Calls

--------------------------------------------------------------------------------------

**************************************************************************************

Host: cfeld-pcx14803

Timers On : Thu May  6 14:43:37 2021
Timers Off: Thu May  6 14:43:42 2021

Wall Time:        4.51 seconds

                                                       Time (seconds)
Module                                       User      System        Wall        Calls

--------------------------------------------------------------------------------------

**************************************************************************************

Host: cfeld-pcx14803

Timers On : Thu May  6 14:43:51 2021
Timers Off: Thu May  6 14:43:55 2021

Wall Time:        4.54 seconds

                                                       Time (seconds)
Module                                       User      System        Wall        Calls

--------------------------------------------------------------------------------------

**************************************************************************************

Host: cfeld-pcx14803

Timers On : Thu May  6 14:44:02 2021
Timers Off: Thu May  6 14:44:07 2021

Wall Time:        4.76 seconds

                                                       Time (seconds)
Module                                       User      System        Wall        Calls

--------------------------------------------------------------------------------------

**************************************************************************************

Host: cfeld-pcx14803

Timers On : Thu May  6 14:44:35 2021
Timers Off: Thu May  6 14:44:40 2021

Wall Time:        5.16 seconds

                                                       Time (seconds)
Module                                       User      System        Wall        Calls

--------------------------------------------------------------------------------------

**************************************************************************************

Host: cfeld-pcx14803

Timers On : Thu May  6 14:47:16 2021
Timers Off: Thu May  6 14:47:22 2021

Wall Time:        6.33 seconds

                                                       Time (seconds)
Module                                       User      System        Wall        Calls

--------------------------------------------------------------------------------------

**************************************************************************************

Host: cfeld-pcx14803

Timers On : Thu May  6 15:29:43 2021
Timers Off: Thu May  6 15:29:53 2021

Wall Time:       10.36 seconds

                                                       Time (seconds)
Module                                       User      System        Wall        Calls

--------------------------------------------------------------------------------------

**************************************************************************************

Host: cfeld-pcx14803

Timers On : Thu May  6 15:30:30 2021
Timers Off: Thu May  6 15:30:38 2021

Wall Time:        7.29 seconds

                                                       Time (seconds)
Module                                       User      System        Wall        Calls

--------------------------------------------------------------------------------------

**************************************************************************************

Host: cfeld-pcx14803

Timers On : Thu May  6 15:30:55 2021
Timers Off: Thu May  6 15:31:02 2021

Wall Time:        6.60 seconds

                                                       Time (seconds)
Module                                       User      System        Wall        Calls

--------------------------------------------------------------------------------------

**************************************************************************************

Host: cfeld-pcx14803

Timers On : Thu May  6 15:31:18 2021
Timers Off: Thu May  6 15:31:23 2021

Wall Time:        5.08 seconds

                                                       Time (seconds)
Module                                       User      System        Wall        Calls

--------------------------------------------------------------------------------------

**************************************************************************************

Host: cfeld-pcx14803

Timers On : Thu May  6 15:31:25 2021
Timers Off: Thu May  6 15:31:31 2021

Wall Time:        6.43 seconds

                                                       Time (seconds)
Module                                       User      System        Wall        Calls

--------------------------------------------------------------------------------------

**************************************************************************************

Host: cfeld-pcx14803

Timers On : Thu May  6 15:37:43 2021
Timers Off: Thu May  6 15:47:26 2021

Wall Time:      583.05 seconds

                                                       Time (seconds)
Module                                       User      System        Wall        Calls

--------------------------------------------------------------------------------------

**************************************************************************************

Host: cfeld-pcx14803

Timers On : Thu May  6 16:13:56 2021
Timers Off: Thu May  6 16:30:00 2021

Wall Time:      963.98 seconds

                                                       Time (seconds)
Module                                       User      System        Wall        Calls

--------------------------------------------------------------------------------------

**************************************************************************************

Host: cfeld-pcx14803

Timers On : Thu May  6 17:00:07 2021
Timers Off: Thu May  6 17:10:47 2021

Wall Time:      640.39 seconds

                                                       Time (seconds)
Module                                       User      System        Wall        Calls

--------------------------------------------------------------------------------------

**************************************************************************************

Host: cfeld-pcx14803

Timers On : Thu May  6 18:15:05 2021
Timers Off: Thu May  6 18:26:56 2021

Wall Time:      711.20 seconds

                                                       Time (seconds)
Module                                       User      System        Wall        Calls

--------------------------------------------------------------------------------------

**************************************************************************************

Host: cfeld-pcx14803

Timers On : Thu May  6 18:27:05 2021
Timers Off: Thu May  6 18:27:33 2021

Wall Time:       28.37 seconds

                                                       Time (seconds)
Module                                       User      System        Wall        Calls

--------------------------------------------------------------------------------------

**************************************************************************************

Host: cfeld-pcx14803

Timers On : Thu May  6 18:27:36 2021
Timers Off: Thu May  6 18:28:14 2021

Wall Time:       38.26 seconds

                                                       Time (seconds)
Module                                       User      System        Wall        Calls

--------------------------------------------------------------------------------------

**************************************************************************************

Host: cfeld-pcx14803

Timers On : Thu May  6 18:29:04 2021
Timers Off: Thu May  6 18:29:36 2021

Wall Time:       31.24 seconds

                                                       Time (seconds)
Module                                       User      System        Wall        Calls

--------------------------------------------------------------------------------------

**************************************************************************************

Host: cfeld-pcx14803

Timers On : Thu May  6 18:30:14 2021
Timers Off: Thu May  6 18:30:56 2021

Wall Time:       41.83 seconds

                                                       Time (seconds)
Module                                       User      System        Wall        Calls

--------------------------------------------------------------------------------------

**************************************************************************************

Host: cfeld-pcx14803

Timers On : Thu May  6 18:31:20 2021
Timers Off: Thu May  6 18:31:30 2021

Wall Time:       10.31 seconds

                                                       Time (seconds)
Module                                       User      System        Wall        Calls

--------------------------------------------------------------------------------------

**************************************************************************************

Host: cfeld-pcx14803

Timers On : Thu May  6 18:32:02 2021
Timers Off: Thu May  6 18:32:12 2021

Wall Time:        9.77 seconds

                                                       Time (seconds)
Module                                       User      System        Wall        Calls

--------------------------------------------------------------------------------------

**************************************************************************************

Host: cfeld-pcx14803

Timers On : Thu May  6 18:36:38 2021
Timers Off: Thu May  6 18:36:48 2021

Wall Time:        9.73 seconds

                                                       Time (seconds)
Module                                       User      System        Wall        Calls

--------------------------------------------------------------------------------------

**************************************************************************************

Host: cfeld-pcx14803

Timers On : Thu May  6 18:37:09 2021
Timers Off: Thu May  6 18:37:15 2021

Wall Time:        6.16 seconds

                                                       Time (seconds)
Module                                       User      System        Wall        Calls

--------------------------------------------------------------------------------------

**************************************************************************************

Host: cfeld-pcx14803

Timers On : Thu May  6 18:37:42 2021
Timers Off: Thu May  6 18:37:48 2021

Wall Time:        6.19 seconds

                                                       Time (seconds)
Module                                       User      System        Wall        Calls

--------------------------------------------------------------------------------------

**************************************************************************************

Host: cfeld-pcx14803

Timers On : Thu May  6 18:37:54 2021
Timers Off: Thu May  6 18:38:01 2021

Wall Time:        7.02 seconds

                                                       Time (seconds)
Module                                       User      System        Wall        Calls

--------------------------------------------------------------------------------------

**************************************************************************************

Host: cfeld-pcx14803

Timers On : Thu May  6 18:38:06 2021
Timers Off: Thu May  6 18:38:13 2021

Wall Time:        6.31 seconds

                                                       Time (seconds)
Module                                       User      System        Wall        Calls

--------------------------------------------------------------------------------------

**************************************************************************************

Host: cfeld-pcx14803

Timers On : Thu May  6 18:38:22 2021
Timers Off: Thu May  6 18:38:29 2021

Wall Time:        6.91 seconds

                                                       Time (seconds)
Module                                       User      System        Wall        Calls

--------------------------------------------------------------------------------------

**************************************************************************************

Host: cfeld-pcx14803

Timers On : Thu May  6 18:38:37 2021
Timers Off: Thu May  6 18:38:43 2021

Wall Time:        6.40 seconds

                                                       Time (seconds)
Module                                       User      System        Wall        Calls

--------------------------------------------------------------------------------------

**************************************************************************************

Host: cfeld-pcx14803

Timers On : Thu May  6 18:38:54 2021
Timers Off: Thu May  6 18:39:49 2021

Wall Time:       55.51 seconds

                                                       Time (seconds)
Module                                       User      System        Wall        Calls

--------------------------------------------------------------------------------------

**************************************************************************************

Host: cfeld-pcx14803

Timers On : Thu May  6 18:46:02 2021
Timers Off: Thu May  6 18:47:33 2021

Wall Time:       91.01 seconds

                                                       Time (seconds)
Module                                       User      System        Wall        Calls

--------------------------------------------------------------------------------------

**************************************************************************************

Host: cfeld-pcx14803

Timers On : Thu May  6 18:48:27 2021
Timers Off: Thu May  6 18:49:04 2021

Wall Time:       36.64 seconds

                                                       Time (seconds)
Module                                       User      System        Wall        Calls

--------------------------------------------------------------------------------------

**************************************************************************************

Host: cfeld-pcx14803

Timers On : Thu May  6 18:49:17 2021
Timers Off: Thu May  6 18:50:11 2021

Wall Time:       54.01 seconds

                                                       Time (seconds)
Module                                       User      System        Wall        Calls

--------------------------------------------------------------------------------------

**************************************************************************************

Host: cfeld-pcx14803

Timers On : Thu May  6 18:50:26 2021
Timers Off: Thu May  6 18:50:27 2021

Wall Time:        0.68 seconds

                                                       Time (seconds)
Module                                       User      System        Wall        Calls

--------------------------------------------------------------------------------------

**************************************************************************************

Host: cfeld-pcx14803

Timers On : Thu May  6 18:50:36 2021
Timers Off: Thu May  6 18:51:01 2021

Wall Time:       24.79 seconds

                                                       Time (seconds)
Module                                       User      System        Wall        Calls

--------------------------------------------------------------------------------------

**************************************************************************************

Host: cfeld-pcx14803

Timers On : Thu May  6 18:51:08 2021
Timers Off: Thu May  6 18:51:34 2021

Wall Time:       26.06 seconds

                                                       Time (seconds)
Module                                       User      System        Wall        Calls

--------------------------------------------------------------------------------------

**************************************************************************************

Host: cfeld-pcx14803

Timers On : Thu May  6 18:51:48 2021
Timers Off: Thu May  6 18:52:15 2021

Wall Time:       26.97 seconds

                                                       Time (seconds)
Module                                       User      System        Wall        Calls

--------------------------------------------------------------------------------------

**************************************************************************************

Host: cfeld-pcx14803

Timers On : Thu May  6 18:52:20 2021
Timers Off: Thu May  6 18:54:02 2021

Wall Time:      102.60 seconds

                                                       Time (seconds)
Module                                       User      System        Wall        Calls

--------------------------------------------------------------------------------------

**************************************************************************************

Host: cfeld-pcx14803

Timers On : Thu May  6 19:00:11 2021
Timers Off: Thu May  6 19:01:20 2021

Wall Time:       69.23 seconds

                                                       Time (seconds)
Module                                       User      System        Wall        Calls

--------------------------------------------------------------------------------------

**************************************************************************************

Host: cfeld-pcx14803

Timers On : Thu May  6 19:01:48 2021
Timers Off: Thu May  6 19:02:34 2021

Wall Time:       45.72 seconds

                                                       Time (seconds)
Module                                       User      System        Wall        Calls

--------------------------------------------------------------------------------------

**************************************************************************************

Host: cfeld-pcx14803

Timers On : Thu May  6 19:03:30 2021
Timers Off: Thu May  6 19:04:20 2021

Wall Time:       49.32 seconds

                                                       Time (seconds)
Module                                       User      System        Wall        Calls

--------------------------------------------------------------------------------------

**************************************************************************************

Host: cfeld-pcx14803

Timers On : Thu May  6 19:04:30 2021
Timers Off: Thu May  6 19:05:34 2021

Wall Time:       64.44 seconds

                                                       Time (seconds)
Module                                       User      System        Wall        Calls

--------------------------------------------------------------------------------------

**************************************************************************************

Host: cfeld-pcx14803

Timers On : Thu May  6 19:06:08 2021
Timers Off: Thu May  6 19:07:25 2021

Wall Time:       76.37 seconds

                                                       Time (seconds)
Module                                       User      System        Wall        Calls

--------------------------------------------------------------------------------------

**************************************************************************************

Host: cfeld-pcx14803

Timers On : Thu May  6 19:09:22 2021
Timers Off: Thu May  6 20:54:54 2021

Wall Time:     6332.77 seconds

                                                       Time (seconds)
Module                                       User      System        Wall        Calls

--------------------------------------------------------------------------------------

**************************************************************************************

Host: cfeld-pcx14803

Timers On : Thu May  6 20:55:23 2021
Timers Off: Thu May  6 20:57:12 2021

Wall Time:      108.61 seconds

                                                       Time (seconds)
Module                                       User      System        Wall        Calls

--------------------------------------------------------------------------------------

**************************************************************************************

Host: cfeld-pcx14803

Timers On : Fri May  7 07:28:00 2021
Timers Off: Fri May  7 07:29:54 2021

Wall Time:      114.15 seconds

                                                       Time (seconds)
Module                                       User      System        Wall        Calls

--------------------------------------------------------------------------------------

**************************************************************************************

Host: cfeld-pcx14803

Timers On : Fri May  7 07:30:11 2021
Timers Off: Fri May  7 07:32:06 2021

Wall Time:      115.02 seconds

                                                       Time (seconds)
Module                                       User      System        Wall        Calls

--------------------------------------------------------------------------------------

**************************************************************************************

Host: cfeld-pcx14803

Timers On : Fri May  7 08:03:34 2021
Timers Off: Fri May  7 08:03:39 2021

Wall Time:        5.51 seconds

                                                       Time (seconds)
Module                                       User      System        Wall        Calls

--------------------------------------------------------------------------------------

**************************************************************************************

Host: cfeld-pcx14803

Timers On : Fri May  7 08:03:57 2021
Timers Off: Fri May  7 08:04:07 2021

Wall Time:        9.66 seconds

                                                       Time (seconds)
Module                                       User      System        Wall        Calls

--------------------------------------------------------------------------------------

**************************************************************************************

Host: cfeld-pcx14803

Timers On : Fri May  7 08:04:22 2021
Timers Off: Fri May  7 08:06:02 2021

Wall Time:      100.00 seconds

                                                       Time (seconds)
Module                                       User      System        Wall        Calls

--------------------------------------------------------------------------------------

**************************************************************************************

Host: cfeld-pcx14803

Timers On : Fri May  7 08:18:46 2021
Timers Off: Fri May  7 08:21:17 2021

Wall Time:      150.88 seconds

                                                       Time (seconds)
Module                                       User      System        Wall        Calls

--------------------------------------------------------------------------------------

**************************************************************************************

Host: cfeld-pcx14803

Timers On : Fri May  7 08:21:20 2021
Timers Off: Mon May 10 18:42:59 2021

Wall Time:   118809.15 seconds

                                                       Time (seconds)
Module                                       User      System        Wall        Calls

--------------------------------------------------------------------------------------

**************************************************************************************

Host: cfeld-pcx14803

Timers On : Tue May 11 18:05:19 2021
Timers Off: Tue May 11 18:05:40 2021

Wall Time:       20.55 seconds

                                                       Time (seconds)
Module                                       User      System        Wall        Calls

--------------------------------------------------------------------------------------

**************************************************************************************

Host: cfeld-pcx14803

Timers On : Tue May 11 21:15:49 2021
Timers Off: Tue May 11 21:15:58 2021

Wall Time:        8.76 seconds

                                                       Time (seconds)
Module                                       User      System        Wall        Calls

--------------------------------------------------------------------------------------

**************************************************************************************

Host: cfeld-pcx14803

Timers On : Tue May 11 21:18:01 2021
Timers Off: Tue May 11 21:18:09 2021

Wall Time:        7.12 seconds

                                                       Time (seconds)
Module                                       User      System        Wall        Calls

--------------------------------------------------------------------------------------

**************************************************************************************

Host: cfeld-pcx14803

Timers On : Tue May 11 21:18:36 2021
Timers Off: Tue May 11 21:18:43 2021

Wall Time:        6.24 seconds

                                                       Time (seconds)
Module                                       User      System        Wall        Calls

--------------------------------------------------------------------------------------

**************************************************************************************

Host: cfeld-pcx14803

Timers On : Tue May 11 21:19:04 2021
Timers Off: Tue May 11 21:19:10 2021

Wall Time:        6.23 seconds

                                                       Time (seconds)
Module                                       User      System        Wall        Calls

--------------------------------------------------------------------------------------

**************************************************************************************

Host: cfeld-pcx14803

Timers On : Tue May 11 21:20:18 2021
Timers Off: Tue May 11 21:20:25 2021

Wall Time:        7.05 seconds

                                                       Time (seconds)
Module                                       User      System        Wall        Calls

--------------------------------------------------------------------------------------

**************************************************************************************

Host: cfeld-pcx14803

Timers On : Tue May 11 21:20:31 2021
Timers Off: Tue May 11 21:20:37 2021

Wall Time:        6.09 seconds

                                                       Time (seconds)
Module                                       User      System        Wall        Calls

--------------------------------------------------------------------------------------

**************************************************************************************

Host: cfeld-pcx14803

Timers On : Tue May 11 21:21:01 2021
Timers Off: Tue May 11 21:21:06 2021

Wall Time:        5.27 seconds

                                                       Time (seconds)
Module                                       User      System        Wall        Calls

--------------------------------------------------------------------------------------

**************************************************************************************

Host: cfeld-pcx14803

Timers On : Tue May 11 21:21:19 2021
Timers Off: Tue May 11 21:24:01 2021

Wall Time:      162.15 seconds

                                                       Time (seconds)
Module                                       User      System        Wall        Calls

--------------------------------------------------------------------------------------

**************************************************************************************

Host: cfeld-pcx14803

Timers On : Tue May 11 21:27:02 2021
Timers Off: Tue May 11 21:27:10 2021

Wall Time:        8.15 seconds

                                                       Time (seconds)
Module                                       User      System        Wall        Calls

--------------------------------------------------------------------------------------

**************************************************************************************

Host: cfeld-pcx14803

Timers On : Tue May 11 21:27:28 2021
Timers Off: Tue May 11 21:27:52 2021

Wall Time:       23.68 seconds

                                                       Time (seconds)
Module                                       User      System        Wall        Calls

--------------------------------------------------------------------------------------

**************************************************************************************

Host: cfeld-pcx14803

Timers On : Wed May 12 07:38:38 2021
Timers Off: Wed May 12 07:38:47 2021

Wall Time:        9.14 seconds

                                                       Time (seconds)
Module                                       User      System        Wall        Calls

--------------------------------------------------------------------------------------

**************************************************************************************

Host: cfeld-pcx14803

Timers On : Wed May 12 07:39:16 2021
Timers Off: Wed May 12 07:39:23 2021

Wall Time:        6.89 seconds

                                                       Time (seconds)
Module                                       User      System        Wall        Calls

--------------------------------------------------------------------------------------

**************************************************************************************

Host: cfeld-pcx14803

Timers On : Wed May 12 08:02:49 2021
Timers Off: Wed May 12 08:02:58 2021

Wall Time:        8.52 seconds

                                                       Time (seconds)
Module                                       User      System        Wall        Calls

--------------------------------------------------------------------------------------

**************************************************************************************

Host: cfeld-pcx14803

Timers On : Wed May 12 08:06:11 2021
Timers Off: Wed May 12 08:06:14 2021

Wall Time:        3.14 seconds

                                                       Time (seconds)
Module                                       User      System        Wall        Calls

--------------------------------------------------------------------------------------

**************************************************************************************

Host: cfeld-pcx14803

Timers On : Wed May 12 08:45:43 2021
Timers Off: Wed May 12 08:45:52 2021

Wall Time:        8.15 seconds

                                                       Time (seconds)
Module                                       User      System        Wall        Calls

--------------------------------------------------------------------------------------

**************************************************************************************

Host: cfeld-pcx14803

Timers On : Wed May 12 09:24:25 2021
Timers Off: Wed May 12 09:30:28 2021

Wall Time:      362.68 seconds

                                                       Time (seconds)
Module                                       User      System        Wall        Calls

--------------------------------------------------------------------------------------

**************************************************************************************

Host: cfeld-pcx14803

Timers On : Wed May 12 09:37:14 2021
Timers Off: Wed May 12 09:38:50 2021

Wall Time:       95.62 seconds

                                                       Time (seconds)
Module                                       User      System        Wall        Calls

--------------------------------------------------------------------------------------

**************************************************************************************

Host: cfeld-pcx14803

Timers On : Wed May 12 09:38:52 2021
Timers Off: Wed May 12 09:38:59 2021

Wall Time:        7.22 seconds

                                                       Time (seconds)
Module                                       User      System        Wall        Calls

--------------------------------------------------------------------------------------

**************************************************************************************

Host: cfeld-pcx14803

Timers On : Wed May 12 09:39:16 2021
Timers Off: Wed May 12 09:43:38 2021

Wall Time:      262.44 seconds

                                                       Time (seconds)
Module                                       User      System        Wall        Calls

--------------------------------------------------------------------------------------

**************************************************************************************

Host: cfeld-pcx14803

Timers On : Wed May 12 09:51:00 2021
Timers Off: Wed May 12 09:54:21 2021

Wall Time:      200.97 seconds

                                                       Time (seconds)
Module                                       User      System        Wall        Calls

--------------------------------------------------------------------------------------

**************************************************************************************

Host: cfeld-pcx14803

Timers On : Wed May 12 09:55:46 2021
Timers Off: Wed May 12 09:55:47 2021

Wall Time:        1.00 seconds

                                                       Time (seconds)
Module                                       User      System        Wall        Calls

--------------------------------------------------------------------------------------

**************************************************************************************

Host: cfeld-pcx14803

Timers On : Wed May 12 09:55:54 2021
Timers Off: Wed May 12 09:59:25 2021

Wall Time:      211.02 seconds

                                                       Time (seconds)
Module                                       User      System        Wall        Calls

--------------------------------------------------------------------------------------

**************************************************************************************

Host: cfeld-pcx14803

Timers On : Wed May 12 10:05:51 2021
Timers Off: Wed May 12 10:09:13 2021

Wall Time:      201.99 seconds

                                                       Time (seconds)
Module                                       User      System        Wall        Calls

--------------------------------------------------------------------------------------

**************************************************************************************

Host: cfeld-pcx14803

Timers On : Wed May 12 10:46:33 2021
Timers Off: Wed May 12 10:46:40 2021

Wall Time:        7.36 seconds

                                                       Time (seconds)
Module                                       User      System        Wall        Calls

--------------------------------------------------------------------------------------

**************************************************************************************

Host: cfeld-pcx14803

Timers On : Wed May 12 10:46:44 2021
Timers Off: Wed May 12 10:46:49 2021

Wall Time:        5.06 seconds

                                                       Time (seconds)
Module                                       User      System        Wall        Calls

--------------------------------------------------------------------------------------

**************************************************************************************

Host: cfeld-pcx14803

Timers On : Wed May 12 11:08:23 2021
Timers Off: Wed May 12 11:08:28 2021

Wall Time:        5.15 seconds

                                                       Time (seconds)
Module                                       User      System        Wall        Calls

--------------------------------------------------------------------------------------

**************************************************************************************

Host: cfeld-pcx14803

Timers On : Wed May 12 11:10:13 2021
Timers Off: Wed May 12 11:10:15 2021

Wall Time:        2.22 seconds

                                                       Time (seconds)
Module                                       User      System        Wall        Calls

--------------------------------------------------------------------------------------

**************************************************************************************

Host: cfeld-pcx14803

Timers On : Wed May 12 13:55:00 2021
Timers Off: Wed May 12 13:55:08 2021

Wall Time:        7.40 seconds

                                                       Time (seconds)
Module                                       User      System        Wall        Calls

--------------------------------------------------------------------------------------

**************************************************************************************

Host: cfeld-pcx14803

Timers On : Wed May 12 13:56:49 2021
Timers Off: Wed May 12 13:58:04 2021

Wall Time:       74.81 seconds

                                                       Time (seconds)
Module                                       User      System        Wall        Calls

--------------------------------------------------------------------------------------

**************************************************************************************

Host: cfeld-pcx14803

Timers On : Wed May 12 13:59:04 2021
Timers Off: Wed May 12 13:59:12 2021

Wall Time:        7.47 seconds

                                                       Time (seconds)
Module                                       User      System        Wall        Calls

--------------------------------------------------------------------------------------

**************************************************************************************

Host: cfeld-pcx14803

Timers On : Wed May 12 13:59:25 2021
Timers Off: Wed May 12 14:00:35 2021

Wall Time:       70.40 seconds

                                                       Time (seconds)
Module                                       User      System        Wall        Calls

--------------------------------------------------------------------------------------

**************************************************************************************

Host: cfeld-pcx14803

Timers On : Thu May 13 07:58:44 2021
Timers Off: Thu May 13 07:58:53 2021

Wall Time:        9.71 seconds

                                                       Time (seconds)
Module                                       User      System        Wall        Calls

--------------------------------------------------------------------------------------

**************************************************************************************

Host: cfeld-pcx14803

Timers On : Thu May 13 08:00:29 2021
Timers Off: Thu May 13 08:00:40 2021

Wall Time:       10.58 seconds

                                                       Time (seconds)
Module                                       User      System        Wall        Calls

--------------------------------------------------------------------------------------

**************************************************************************************

Host: cfeld-pcx14803

Timers On : Thu May 13 08:00:53 2021
Timers Off: Thu May 13 08:01:38 2021

Wall Time:       45.55 seconds

                                                       Time (seconds)
Module                                       User      System        Wall        Calls

--------------------------------------------------------------------------------------

**************************************************************************************

Host: cfeld-pcx14803

Timers On : Thu May 13 08:04:17 2021
Timers Off: Thu May 13 08:04:27 2021

Wall Time:        9.97 seconds

                                                       Time (seconds)
Module                                       User      System        Wall        Calls

--------------------------------------------------------------------------------------

**************************************************************************************

Host: cfeld-pcx14803

Timers On : Thu May 13 08:07:30 2021
Timers Off: Thu May 13 08:07:38 2021

Wall Time:        7.61 seconds

                                                       Time (seconds)
Module                                       User      System        Wall        Calls

--------------------------------------------------------------------------------------

**************************************************************************************

Host: cfeld-pcx14803

Timers On : Thu May 13 08:08:21 2021
Timers Off: Thu May 13 08:08:29 2021

Wall Time:        7.35 seconds

                                                       Time (seconds)
Module                                       User      System        Wall        Calls

--------------------------------------------------------------------------------------

**************************************************************************************

Host: cfeld-pcx14803

Timers On : Thu May 13 08:09:05 2021
Timers Off: Thu May 13 08:09:12 2021

Wall Time:        6.69 seconds

                                                       Time (seconds)
Module                                       User      System        Wall        Calls

--------------------------------------------------------------------------------------

**************************************************************************************

Host: cfeld-pcx14803

Timers On : Thu May 13 08:12:10 2021
Timers Off: Thu May 13 08:12:16 2021

Wall Time:        6.62 seconds

                                                       Time (seconds)
Module                                       User      System        Wall        Calls

--------------------------------------------------------------------------------------

**************************************************************************************

Host: cfeld-pcx14803

Timers On : Thu May 13 08:23:26 2021
Timers Off: Thu May 13 08:23:34 2021

Wall Time:        8.71 seconds

                                                       Time (seconds)
Module                                       User      System        Wall        Calls

--------------------------------------------------------------------------------------

**************************************************************************************

Host: cfeld-pcx14803

Timers On : Thu May 13 08:28:54 2021
Timers Off: Thu May 13 08:29:04 2021

Wall Time:       10.36 seconds

                                                       Time (seconds)
Module                                       User      System        Wall        Calls

--------------------------------------------------------------------------------------

**************************************************************************************

Host: cfeld-pcx14803

Timers On : Thu May 13 08:36:15 2021
Timers Off: Thu May 13 08:36:21 2021

Wall Time:        6.37 seconds

                                                       Time (seconds)
Module                                       User      System        Wall        Calls

--------------------------------------------------------------------------------------

**************************************************************************************

Host: cfeld-pcx14803

Timers On : Thu May 13 08:37:31 2021
Timers Off: Thu May 13 08:37:39 2021

Wall Time:        7.86 seconds

                                                       Time (seconds)
Module                                       User      System        Wall        Calls

--------------------------------------------------------------------------------------

**************************************************************************************

Host: cfeld-pcx14803

Timers On : Thu May 13 08:58:28 2021
Timers Off: Thu May 13 08:58:37 2021

Wall Time:        8.42 seconds

                                                       Time (seconds)
Module                                       User      System        Wall        Calls

--------------------------------------------------------------------------------------

**************************************************************************************
