
Host: cfeld-pcx14803

Timers On : Wed Jun  9 09:10:14 2021
Timers Off: Wed Jun  9 09:10:21 2021

Wall Time:        7.36 seconds

                                                       Time (seconds)
Module                                       User      System        Wall        Calls

--------------------------------------------------------------------------------------

**************************************************************************************

Host: cfeld-pcx14803

Timers On : Wed Jun  9 10:31:02 2021
Timers Off: Wed Jun  9 10:31:03 2021

Wall Time:        1.09 seconds

                                                       Time (seconds)
Module                                       User      System        Wall        Calls

--------------------------------------------------------------------------------------

**************************************************************************************

Host: cfeld-pcx14803

Timers On : Wed Jun  9 10:40:27 2021
Timers Off: Wed Jun  9 10:40:34 2021

Wall Time:        7.06 seconds

                                                       Time (seconds)
Module                                       User      System        Wall        Calls

--------------------------------------------------------------------------------------

**************************************************************************************

Host: cfeld-pcx14803

Timers On : Wed Jun  9 15:26:15 2021
Timers Off: Wed Jun  9 15:26:17 2021

Wall Time:        2.65 seconds

                                                       Time (seconds)
Module                                       User      System        Wall        Calls

--------------------------------------------------------------------------------------

**************************************************************************************

Host: cfeld-pcx14803

Timers On : Wed Jun  9 15:30:03 2021
Timers Off: Wed Jun  9 15:30:05 2021

Wall Time:        2.38 seconds

                                                       Time (seconds)
Module                                       User      System        Wall        Calls

--------------------------------------------------------------------------------------

**************************************************************************************

Host: cfeld-pcx14803

Timers On : Wed Jun  9 15:31:10 2021
Timers Off: Wed Jun  9 15:31:13 2021

Wall Time:        2.26 seconds

                                                       Time (seconds)
Module                                       User      System        Wall        Calls

--------------------------------------------------------------------------------------

**************************************************************************************

Host: cfeld-pcx14803

Timers On : Wed Jun  9 15:31:32 2021
Timers Off: Wed Jun  9 15:31:34 2021

Wall Time:        2.08 seconds

                                                       Time (seconds)
Module                                       User      System        Wall        Calls

--------------------------------------------------------------------------------------

**************************************************************************************

Host: cfeld-pcx14803

Timers On : Wed Jun  9 15:32:21 2021
Timers Off: Wed Jun  9 15:32:23 2021

Wall Time:        1.78 seconds

                                                       Time (seconds)
Module                                       User      System        Wall        Calls

--------------------------------------------------------------------------------------

**************************************************************************************

Host: cfeld-pcx14803

Timers On : Wed Jun  9 15:32:40 2021
Timers Off: Wed Jun  9 15:34:43 2021

Wall Time:      123.59 seconds

                                                       Time (seconds)
Module                                       User      System        Wall        Calls

--------------------------------------------------------------------------------------

**************************************************************************************

Host: cfeld-pcx14803

Timers On : Wed Jun  9 15:36:37 2021
Timers Off: Wed Jun  9 15:36:40 2021

Wall Time:        2.88 seconds

                                                       Time (seconds)
Module                                       User      System        Wall        Calls

--------------------------------------------------------------------------------------

**************************************************************************************

Host: cfeld-pcx14803

Timers On : Wed Jun  9 15:40:32 2021
Timers Off: Wed Jun  9 15:40:34 2021

Wall Time:        2.16 seconds

                                                       Time (seconds)
Module                                       User      System        Wall        Calls

--------------------------------------------------------------------------------------

**************************************************************************************

Host: cfeld-pcx14803

Timers On : Wed Jun  9 15:41:05 2021
Timers Off: Wed Jun  9 15:41:07 2021

Wall Time:        2.35 seconds

                                                       Time (seconds)
Module                                       User      System        Wall        Calls

--------------------------------------------------------------------------------------

**************************************************************************************

Host: cfeld-pcx14803

Timers On : Wed Jun  9 15:42:09 2021
Timers Off: Wed Jun  9 15:42:11 2021

Wall Time:        2.37 seconds

                                                       Time (seconds)
Module                                       User      System        Wall        Calls

--------------------------------------------------------------------------------------

**************************************************************************************

Host: cfeld-pcx14803

Timers On : Wed Jun  9 15:43:07 2021
Timers Off: Wed Jun  9 15:43:09 2021

Wall Time:        2.08 seconds

                                                       Time (seconds)
Module                                       User      System        Wall        Calls

--------------------------------------------------------------------------------------

**************************************************************************************

Host: cfeld-pcx14803

Timers On : Wed Jun  9 15:43:22 2021
Timers Off: Wed Jun  9 15:43:24 2021

Wall Time:        1.67 seconds

                                                       Time (seconds)
Module                                       User      System        Wall        Calls

--------------------------------------------------------------------------------------

**************************************************************************************

Host: cfeld-pcx14803

Timers On : Wed Jun  9 15:43:34 2021
Timers Off: Wed Jun  9 15:44:32 2021

Wall Time:       58.88 seconds

                                                       Time (seconds)
Module                                       User      System        Wall        Calls

--------------------------------------------------------------------------------------

**************************************************************************************

Host: cfeld-pcx14803

Timers On : Wed Jun  9 15:44:57 2021
Timers Off: Wed Jun  9 15:46:06 2021

Wall Time:       69.30 seconds

                                                       Time (seconds)
Module                                       User      System        Wall        Calls

--------------------------------------------------------------------------------------

**************************************************************************************

Host: cfeld-pcx14803

Timers On : Wed Jun  9 15:49:15 2021
Timers Off: Wed Jun  9 15:50:45 2021

Wall Time:       90.19 seconds

                                                       Time (seconds)
Module                                       User      System        Wall        Calls

--------------------------------------------------------------------------------------

**************************************************************************************

Host: cfeld-pcx14803

Timers On : Wed Jun  9 15:54:58 2021
Timers Off: Wed Jun  9 15:55:54 2021

Wall Time:       55.43 seconds

                                                       Time (seconds)
Module                                       User      System        Wall        Calls

--------------------------------------------------------------------------------------

**************************************************************************************

Host: cfeld-pcx14803

Timers On : Wed Jun  9 15:57:33 2021
Timers Off: Wed Jun  9 15:58:40 2021

Wall Time:       66.86 seconds

                                                       Time (seconds)
Module                                       User      System        Wall        Calls

--------------------------------------------------------------------------------------

**************************************************************************************

Host: cfeld-pcx14803

Timers On : Wed Jun  9 15:58:46 2021
Timers Off: Wed Jun  9 15:58:51 2021

Wall Time:        4.91 seconds

                                                       Time (seconds)
Module                                       User      System        Wall        Calls

--------------------------------------------------------------------------------------

**************************************************************************************

Host: cfeld-pcx14803

Timers On : Wed Jun  9 15:59:37 2021
Timers Off: Wed Jun  9 15:59:42 2021

Wall Time:        5.53 seconds

                                                       Time (seconds)
Module                                       User      System        Wall        Calls

--------------------------------------------------------------------------------------

**************************************************************************************

Host: cfeld-pcx14803

Timers On : Wed Jun  9 16:00:48 2021
Timers Off: Wed Jun  9 16:02:16 2021

Wall Time:       87.30 seconds

                                                       Time (seconds)
Module                                       User      System        Wall        Calls

--------------------------------------------------------------------------------------

**************************************************************************************

Host: cfeld-pcx14803

Timers On : Wed Jun  9 16:02:26 2021
Timers Off: Wed Jun  9 16:04:19 2021

Wall Time:      112.50 seconds

                                                       Time (seconds)
Module                                       User      System        Wall        Calls

--------------------------------------------------------------------------------------

**************************************************************************************

Host: cfeld-pcx14803

Timers On : Wed Jun  9 16:06:09 2021
Timers Off: Wed Jun  9 16:07:32 2021

Wall Time:       82.77 seconds

                                                       Time (seconds)
Module                                       User      System        Wall        Calls

--------------------------------------------------------------------------------------

**************************************************************************************

Host: cfeld-pcx14803

Timers On : Wed Jun  9 16:07:47 2021
Timers Off: Wed Jun  9 16:09:13 2021

Wall Time:       85.98 seconds

                                                       Time (seconds)
Module                                       User      System        Wall        Calls

--------------------------------------------------------------------------------------

**************************************************************************************

Host: cfeld-pcx14803

Timers On : Wed Jun  9 16:09:22 2021
Timers Off: Wed Jun  9 16:14:07 2021

Wall Time:      284.47 seconds

                                                       Time (seconds)
Module                                       User      System        Wall        Calls

--------------------------------------------------------------------------------------

**************************************************************************************

Host: cfeld-pcx14803

Timers On : Wed Jun  9 19:29:14 2021
Timers Off: Wed Jun  9 19:29:23 2021

Wall Time:        9.28 seconds

                                                       Time (seconds)
Module                                       User      System        Wall        Calls

--------------------------------------------------------------------------------------

**************************************************************************************

Host: cfeld-pcx14803

Timers On : Wed Jun  9 19:29:39 2021
Timers Off: Wed Jun  9 19:29:40 2021

Wall Time:        1.38 seconds

                                                       Time (seconds)
Module                                       User      System        Wall        Calls

--------------------------------------------------------------------------------------

**************************************************************************************

Host: cfeld-pcx14803

Timers On : Wed Jun  9 19:31:48 2021
Timers Off: Wed Jun  9 19:31:51 2021

Wall Time:        2.49 seconds

                                                       Time (seconds)
Module                                       User      System        Wall        Calls

--------------------------------------------------------------------------------------

**************************************************************************************

Host: cfeld-pcx14803

Timers On : Wed Jun  9 19:32:15 2021
Timers Off: Wed Jun  9 19:32:17 2021

Wall Time:        2.57 seconds

                                                       Time (seconds)
Module                                       User      System        Wall        Calls

--------------------------------------------------------------------------------------

**************************************************************************************

Host: cfeld-pcx14803

Timers On : Wed Jun  9 19:32:31 2021
Timers Off: Wed Jun  9 19:33:10 2021

Wall Time:       38.49 seconds

                                                       Time (seconds)
Module                                       User      System        Wall        Calls

--------------------------------------------------------------------------------------

**************************************************************************************

Host: cfeld-pcx14803

Timers On : Wed Jun  9 19:34:08 2021
Timers Off: Wed Jun  9 19:34:10 2021

Wall Time:        1.60 seconds

                                                       Time (seconds)
Module                                       User      System        Wall        Calls

--------------------------------------------------------------------------------------

**************************************************************************************

Host: cfeld-pcx14803

Timers On : Wed Jun  9 19:34:42 2021
Timers Off: Wed Jun  9 19:34:44 2021

Wall Time:        1.66 seconds

                                                       Time (seconds)
Module                                       User      System        Wall        Calls

--------------------------------------------------------------------------------------

**************************************************************************************

Host: cfeld-pcx14803

Timers On : Wed Jun  9 19:35:19 2021
Timers Off: Wed Jun  9 19:35:38 2021

Wall Time:       18.90 seconds

                                                       Time (seconds)
Module                                       User      System        Wall        Calls

--------------------------------------------------------------------------------------

**************************************************************************************

Host: cfeld-pcx14803

Timers On : Wed Jun  9 19:42:16 2021
Timers Off: Wed Jun  9 19:44:07 2021

Wall Time:      110.87 seconds

                                                       Time (seconds)
Module                                       User      System        Wall        Calls

--------------------------------------------------------------------------------------

**************************************************************************************

Host: cfeld-pcx14803

Timers On : Wed Jun  9 21:35:39 2021
Timers Off: Wed Jun  9 21:35:42 2021

Wall Time:        2.40 seconds

                                                       Time (seconds)
Module                                       User      System        Wall        Calls

--------------------------------------------------------------------------------------

**************************************************************************************

Host: cfeld-pcx14803

Timers On : Thu Jun 10 08:29:38 2021
Timers Off: Thu Jun 10 08:29:40 2021

Wall Time:        1.97 seconds

                                                       Time (seconds)
Module                                       User      System        Wall        Calls

--------------------------------------------------------------------------------------

**************************************************************************************

Host: cfeld-pcx14803

Timers On : Thu Jun 10 08:29:55 2021
Timers Off: Thu Jun 10 08:30:54 2021

Wall Time:       59.09 seconds

                                                       Time (seconds)
Module                                       User      System        Wall        Calls

--------------------------------------------------------------------------------------

**************************************************************************************

Host: cfeld-pcx14803

Timers On : Thu Jun 10 17:44:25 2021
Timers Off: Thu Jun 10 17:44:27 2021

Wall Time:        2.14 seconds

                                                       Time (seconds)
Module                                       User      System        Wall        Calls

--------------------------------------------------------------------------------------

**************************************************************************************

Host: cfeld-pcx14803

Timers On : Thu Jun 10 17:45:01 2021
Timers Off: Thu Jun 10 17:48:17 2021

Wall Time:      195.83 seconds

                                                       Time (seconds)
Module                                       User      System        Wall        Calls

--------------------------------------------------------------------------------------

**************************************************************************************

Host: cfeld-pcx14803

Timers On : Thu Jun 10 17:53:35 2021
Timers Off: Thu Jun 10 17:54:58 2021

Wall Time:       82.37 seconds

                                                       Time (seconds)
Module                                       User      System        Wall        Calls

--------------------------------------------------------------------------------------

**************************************************************************************

Host: cfeld-pcx14803

Timers On : Thu Jun 10 17:55:24 2021
Timers Off: Thu Jun 10 18:26:54 2021

Wall Time:     1890.06 seconds

                                                       Time (seconds)
Module                                       User      System        Wall        Calls

--------------------------------------------------------------------------------------

**************************************************************************************

Host: cfeld-pcx14803

Timers On : Thu Jun 10 18:27:10 2021
Timers Off: Thu Jun 10 18:27:13 2021

Wall Time:        3.44 seconds

                                                       Time (seconds)
Module                                       User      System        Wall        Calls

--------------------------------------------------------------------------------------

**************************************************************************************

Host: cfeld-pcx14803

Timers On : Thu Jun 10 18:27:27 2021
Timers Off: Thu Jun 10 18:28:00 2021

Wall Time:       33.18 seconds

                                                       Time (seconds)
Module                                       User      System        Wall        Calls

--------------------------------------------------------------------------------------

**************************************************************************************

Host: cfeld-pcx14803

Timers On : Fri Jun 11 07:45:47 2021
Timers Off: Fri Jun 11 07:46:41 2021

Wall Time:       54.42 seconds

                                                       Time (seconds)
Module                                       User      System        Wall        Calls

--------------------------------------------------------------------------------------

**************************************************************************************

Host: cfeld-pcx14803

Timers On : Fri Jun 11 07:46:59 2021
Timers Off: Fri Jun 11 07:47:02 2021

Wall Time:        2.86 seconds

                                                       Time (seconds)
Module                                       User      System        Wall        Calls

--------------------------------------------------------------------------------------

**************************************************************************************

Host: cfeld-pcx14803

Timers On : Fri Jun 11 07:47:17 2021
Timers Off: Fri Jun 11 07:47:20 2021

Wall Time:        2.79 seconds

                                                       Time (seconds)
Module                                       User      System        Wall        Calls

--------------------------------------------------------------------------------------

**************************************************************************************

Host: cfeld-pcx14803

Timers On : Fri Jun 11 07:47:47 2021
Timers Off: Fri Jun 11 07:47:50 2021

Wall Time:        3.67 seconds

                                                       Time (seconds)
Module                                       User      System        Wall        Calls

--------------------------------------------------------------------------------------

**************************************************************************************

Host: cfeld-pcx14803

Timers On : Fri Jun 11 07:51:16 2021
Timers Off: Fri Jun 11 07:52:59 2021

Wall Time:      102.90 seconds

                                                       Time (seconds)
Module                                       User      System        Wall        Calls

--------------------------------------------------------------------------------------

**************************************************************************************

Host: cfeld-pcx14803

Timers On : Mon Jun 14 16:14:24 2021
Timers Off: Mon Jun 14 16:14:32 2021

Wall Time:        7.76 seconds

                                                       Time (seconds)
Module                                       User      System        Wall        Calls

--------------------------------------------------------------------------------------

**************************************************************************************

Host: cfeld-pcx14803

Timers On : Mon Jun 14 16:17:04 2021
Timers Off: Mon Jun 14 16:17:10 2021

Wall Time:        6.48 seconds

                                                       Time (seconds)
Module                                       User      System        Wall        Calls

--------------------------------------------------------------------------------------

**************************************************************************************

Host: cfeld-pcx14803

Timers On : Mon Jun 14 16:17:41 2021
Timers Off: Mon Jun 14 16:17:47 2021

Wall Time:        6.35 seconds

                                                       Time (seconds)
Module                                       User      System        Wall        Calls

--------------------------------------------------------------------------------------

**************************************************************************************

Host: cfeld-pcx14803

Timers On : Mon Jun 14 16:17:57 2021
Timers Off: Mon Jun 14 16:18:03 2021

Wall Time:        5.56 seconds

                                                       Time (seconds)
Module                                       User      System        Wall        Calls

--------------------------------------------------------------------------------------

**************************************************************************************

Host: cfeld-pcx14803

Timers On : Mon Jun 14 16:18:15 2021
Timers Off: Mon Jun 14 16:18:21 2021

Wall Time:        6.29 seconds

                                                       Time (seconds)
Module                                       User      System        Wall        Calls

--------------------------------------------------------------------------------------

**************************************************************************************
