
Host: ezak

Timers On : Tue Mar 22 10:27:30 2022
Timers Off: Tue Mar 22 10:27:31 2022

Wall Time:        1.37 seconds

                                                       Time (seconds)
Module                                       User      System        Wall        Calls

--------------------------------------------------------------------------------------

**************************************************************************************
