
Host: cfeld-pcx14803

Timers On : Mon Apr 12 15:16:37 2021
Timers Off: Mon Apr 12 15:16:38 2021

Wall Time:        1.52 seconds

                                                       Time (seconds)
Module                                       User      System        Wall        Calls

--------------------------------------------------------------------------------------

**************************************************************************************

Host: cfeld-pcx14803

Timers On : Mon Apr 12 15:17:19 2021
Timers Off: Mon Apr 12 15:17:20 2021

Wall Time:        1.00 seconds

                                                       Time (seconds)
Module                                       User      System        Wall        Calls

--------------------------------------------------------------------------------------

**************************************************************************************

Host: cfeld-pcx14803

Timers On : Mon Apr 12 15:18:13 2021
Timers Off: Mon Apr 12 15:18:15 2021

Wall Time:        1.62 seconds

                                                       Time (seconds)
Module                                       User      System        Wall        Calls

--------------------------------------------------------------------------------------

**************************************************************************************

Host: cfeld-pcx14803

Timers On : Mon Apr 12 17:06:18 2021
Timers Off: Mon Apr 12 17:06:24 2021

Wall Time:        5.53 seconds

                                                       Time (seconds)
Module                                       User      System        Wall        Calls

--------------------------------------------------------------------------------------

**************************************************************************************

Host: cfeld-pcx14803

Timers On : Mon Apr 12 17:06:35 2021
Timers Off: Mon Apr 12 17:06:38 2021

Wall Time:        3.31 seconds

                                                       Time (seconds)
Module                                       User      System        Wall        Calls

--------------------------------------------------------------------------------------

**************************************************************************************

Host: cfeld-pcx14803

Timers On : Mon Apr 12 17:06:48 2021
Timers Off: Mon Apr 12 17:06:52 2021

Wall Time:        3.45 seconds

                                                       Time (seconds)
Module                                       User      System        Wall        Calls

--------------------------------------------------------------------------------------

**************************************************************************************

Host: cfeld-pcx14803

Timers On : Mon Apr 12 17:07:13 2021
Timers Off: Mon Apr 12 17:07:15 2021

Wall Time:        1.47 seconds

                                                       Time (seconds)
Module                                       User      System        Wall        Calls

--------------------------------------------------------------------------------------

**************************************************************************************

Host: cfeld-pcx14803

Timers On : Mon Apr 12 17:07:31 2021
Timers Off: Mon Apr 12 17:09:41 2021

Wall Time:      130.29 seconds

                                                       Time (seconds)
Module                                       User      System        Wall        Calls

--------------------------------------------------------------------------------------

**************************************************************************************

Host: cfeld-pcx14803

Timers On : Tue Apr 13 09:02:10 2021
Timers Off: Tue Apr 13 09:05:39 2021

Wall Time:      208.75 seconds

                                                       Time (seconds)
Module                                       User      System        Wall        Calls

--------------------------------------------------------------------------------------

**************************************************************************************

Host: cfeld-pcx14803

Timers On : Tue Apr 13 09:05:58 2021
Timers Off: Tue Apr 13 09:10:33 2021

Wall Time:      274.21 seconds

                                                       Time (seconds)
Module                                       User      System        Wall        Calls

--------------------------------------------------------------------------------------

**************************************************************************************

Host: cfeld-pcx14803

Timers On : Tue Apr 13 10:01:16 2021
Timers Off: Tue Apr 13 10:01:19 2021

Wall Time:        2.44 seconds

                                                       Time (seconds)
Module                                       User      System        Wall        Calls

--------------------------------------------------------------------------------------

**************************************************************************************

Host: cfeld-pcx14803

Timers On : Tue Apr 13 10:01:47 2021
Timers Off: Tue Apr 13 10:06:14 2021

Wall Time:      267.04 seconds

                                                       Time (seconds)
Module                                       User      System        Wall        Calls

--------------------------------------------------------------------------------------

**************************************************************************************

Host: cfeld-pcx14803

Timers On : Tue Apr 13 10:27:02 2021
Timers Off: Tue Apr 13 10:28:45 2021

Wall Time:      103.43 seconds

                                                       Time (seconds)
Module                                       User      System        Wall        Calls

--------------------------------------------------------------------------------------

**************************************************************************************

Host: cfeld-pcx14803

Timers On : Tue Apr 13 10:29:17 2021
Timers Off: Tue Apr 13 10:29:28 2021

Wall Time:       11.21 seconds

                                                       Time (seconds)
Module                                       User      System        Wall        Calls

--------------------------------------------------------------------------------------

**************************************************************************************

Host: cfeld-pcx14803

Timers On : Tue Apr 13 10:30:36 2021
Timers Off: Tue Apr 13 10:30:38 2021

Wall Time:        2.16 seconds

                                                       Time (seconds)
Module                                       User      System        Wall        Calls

--------------------------------------------------------------------------------------

**************************************************************************************

Host: cfeld-pcx14803

Timers On : Tue Apr 13 10:30:45 2021
Timers Off: Tue Apr 13 10:30:47 2021

Wall Time:        2.13 seconds

                                                       Time (seconds)
Module                                       User      System        Wall        Calls

--------------------------------------------------------------------------------------

**************************************************************************************

Host: cfeld-pcx14803

Timers On : Tue Apr 13 10:31:13 2021
Timers Off: Tue Apr 13 10:31:41 2021

Wall Time:       27.23 seconds

                                                       Time (seconds)
Module                                       User      System        Wall        Calls

--------------------------------------------------------------------------------------

**************************************************************************************

Host: cfeld-pcx14803

Timers On : Tue Apr 13 10:33:46 2021
Timers Off: Tue Apr 13 10:33:49 2021

Wall Time:        2.22 seconds

                                                       Time (seconds)
Module                                       User      System        Wall        Calls

--------------------------------------------------------------------------------------

**************************************************************************************

Host: cfeld-pcx14803

Timers On : Tue Apr 13 10:33:55 2021
Timers Off: Tue Apr 13 10:37:26 2021

Wall Time:      210.33 seconds

                                                       Time (seconds)
Module                                       User      System        Wall        Calls

--------------------------------------------------------------------------------------

**************************************************************************************

Host: cfeld-pcx14803

Timers On : Tue Apr 13 10:50:12 2021
Timers Off: Tue Apr 13 10:50:15 2021

Wall Time:        2.82 seconds

                                                       Time (seconds)
Module                                       User      System        Wall        Calls

--------------------------------------------------------------------------------------

**************************************************************************************

Host: cfeld-pcx14803

Timers On : Tue Apr 13 10:50:26 2021
Timers Off: Tue Apr 13 10:50:31 2021

Wall Time:        4.44 seconds

                                                       Time (seconds)
Module                                       User      System        Wall        Calls

--------------------------------------------------------------------------------------

**************************************************************************************

Host: cfeld-pcx14803

Timers On : Tue Apr 13 11:00:12 2021
Timers Off: Tue Apr 13 11:00:42 2021

Wall Time:       30.02 seconds

                                                       Time (seconds)
Module                                       User      System        Wall        Calls

--------------------------------------------------------------------------------------

**************************************************************************************

Host: cfeld-pcx14803

Timers On : Tue Apr 13 11:02:41 2021
Timers Off: Tue Apr 13 11:02:46 2021

Wall Time:        4.50 seconds

                                                       Time (seconds)
Module                                       User      System        Wall        Calls

--------------------------------------------------------------------------------------

**************************************************************************************

Host: cfeld-pcx14803

Timers On : Tue Apr 13 11:04:18 2021
Timers Off: Tue Apr 13 11:04:23 2021

Wall Time:        4.57 seconds

                                                       Time (seconds)
Module                                       User      System        Wall        Calls

--------------------------------------------------------------------------------------

**************************************************************************************

Host: cfeld-pcx14803

Timers On : Tue Apr 13 11:12:16 2021
Timers Off: Tue Apr 13 11:12:22 2021

Wall Time:        5.32 seconds

                                                       Time (seconds)
Module                                       User      System        Wall        Calls

--------------------------------------------------------------------------------------

**************************************************************************************

Host: cfeld-pcx14803

Timers On : Tue Apr 13 11:14:17 2021
Timers Off: Tue Apr 13 11:14:19 2021

Wall Time:        1.54 seconds

                                                       Time (seconds)
Module                                       User      System        Wall        Calls

--------------------------------------------------------------------------------------

**************************************************************************************

Host: cfeld-pcx14803

Timers On : Tue Apr 13 11:27:27 2021
Timers Off: Tue Apr 13 11:27:29 2021

Wall Time:        2.53 seconds

                                                       Time (seconds)
Module                                       User      System        Wall        Calls

--------------------------------------------------------------------------------------

**************************************************************************************

Host: cfeld-pcx14803

Timers On : Tue Apr 13 11:28:37 2021
Timers Off: Tue Apr 13 11:28:39 2021

Wall Time:        1.49 seconds

                                                       Time (seconds)
Module                                       User      System        Wall        Calls

--------------------------------------------------------------------------------------

**************************************************************************************

Host: cfeld-pcx14803

Timers On : Tue Apr 13 11:43:32 2021
Timers Off: Tue Apr 13 11:43:57 2021

Wall Time:       25.03 seconds

                                                       Time (seconds)
Module                                       User      System        Wall        Calls

--------------------------------------------------------------------------------------

**************************************************************************************

Host: cfeld-pcx14803

Timers On : Tue Apr 13 11:49:15 2021
Timers Off: Tue Apr 13 11:49:17 2021

Wall Time:        2.47 seconds

                                                       Time (seconds)
Module                                       User      System        Wall        Calls

--------------------------------------------------------------------------------------

**************************************************************************************

Host: cfeld-pcx14803

Timers On : Tue Apr 13 11:50:57 2021
Timers Off: Tue Apr 13 11:51:00 2021

Wall Time:        2.08 seconds

                                                       Time (seconds)
Module                                       User      System        Wall        Calls

--------------------------------------------------------------------------------------

**************************************************************************************

Host: cfeld-pcx14803

Timers On : Tue Apr 13 11:55:09 2021
Timers Off: Tue Apr 13 11:55:16 2021

Wall Time:        6.63 seconds

                                                       Time (seconds)
Module                                       User      System        Wall        Calls

--------------------------------------------------------------------------------------

**************************************************************************************

Host: cfeld-pcx14803

Timers On : Tue Apr 13 12:34:51 2021
Timers Off: Tue Apr 13 12:34:54 2021

Wall Time:        2.52 seconds

                                                       Time (seconds)
Module                                       User      System        Wall        Calls

--------------------------------------------------------------------------------------

**************************************************************************************

Host: cfeld-pcx14803

Timers On : Tue Apr 13 12:39:56 2021
Timers Off: Tue Apr 13 12:40:35 2021

Wall Time:       38.92 seconds

                                                       Time (seconds)
Module                                       User      System        Wall        Calls

--------------------------------------------------------------------------------------

**************************************************************************************

Host: cfeld-pcx14803

Timers On : Tue Apr 13 12:41:35 2021
Timers Off: Tue Apr 13 12:41:37 2021

Wall Time:        1.25 seconds

                                                       Time (seconds)
Module                                       User      System        Wall        Calls

--------------------------------------------------------------------------------------

**************************************************************************************

Host: cfeld-pcx14803

Timers On : Tue Apr 13 12:41:52 2021
Timers Off: Tue Apr 13 12:42:52 2021

Wall Time:       60.06 seconds

                                                       Time (seconds)
Module                                       User      System        Wall        Calls

--------------------------------------------------------------------------------------

**************************************************************************************

Host: cfeld-pcx14803

Timers On : Tue Apr 13 12:43:23 2021
Timers Off: Tue Apr 13 12:43:58 2021

Wall Time:       35.06 seconds

                                                       Time (seconds)
Module                                       User      System        Wall        Calls

--------------------------------------------------------------------------------------

**************************************************************************************

Host: cfeld-pcx14803

Timers On : Tue Apr 13 12:44:48 2021
Timers Off: Tue Apr 13 13:14:44 2021

Wall Time:     1795.40 seconds

                                                       Time (seconds)
Module                                       User      System        Wall        Calls

--------------------------------------------------------------------------------------

**************************************************************************************

Host: cfeld-pcx14803

Timers On : Tue Apr 13 13:17:04 2021
Timers Off: Tue Apr 13 13:17:10 2021

Wall Time:        5.86 seconds

                                                       Time (seconds)
Module                                       User      System        Wall        Calls

--------------------------------------------------------------------------------------

**************************************************************************************

Host: cfeld-pcx14803

Timers On : Tue Apr 13 13:17:27 2021
Timers Off: Tue Apr 13 13:17:30 2021

Wall Time:        2.49 seconds

                                                       Time (seconds)
Module                                       User      System        Wall        Calls

--------------------------------------------------------------------------------------

**************************************************************************************

Host: cfeld-pcx14803

Timers On : Tue Apr 13 13:17:45 2021
Timers Off: Tue Apr 13 13:17:47 2021

Wall Time:        1.91 seconds

                                                       Time (seconds)
Module                                       User      System        Wall        Calls

--------------------------------------------------------------------------------------

**************************************************************************************

Host: cfeld-pcx14803

Timers On : Tue Apr 13 13:29:12 2021
Timers Off: Tue Apr 13 13:29:25 2021

Wall Time:       13.15 seconds

                                                       Time (seconds)
Module                                       User      System        Wall        Calls

--------------------------------------------------------------------------------------

**************************************************************************************

Host: cfeld-pcx14803

Timers On : Tue Apr 13 13:29:37 2021
Timers Off: Tue Apr 13 13:31:21 2021

Wall Time:      103.73 seconds

                                                       Time (seconds)
Module                                       User      System        Wall        Calls

--------------------------------------------------------------------------------------

**************************************************************************************

Host: cfeld-pcx14803

Timers On : Tue Apr 13 13:31:31 2021
Timers Off: Tue Apr 13 13:32:34 2021

Wall Time:       63.33 seconds

                                                       Time (seconds)
Module                                       User      System        Wall        Calls

--------------------------------------------------------------------------------------

**************************************************************************************

Host: cfeld-pcx14803

Timers On : Tue Apr 13 14:00:49 2021
Timers Off: Tue Apr 13 14:00:52 2021

Wall Time:        2.62 seconds

                                                       Time (seconds)
Module                                       User      System        Wall        Calls

--------------------------------------------------------------------------------------

**************************************************************************************

Host: cfeld-pcx14803

Timers On : Tue Apr 13 14:02:07 2021
Timers Off: Tue Apr 13 14:02:09 2021

Wall Time:        1.61 seconds

                                                       Time (seconds)
Module                                       User      System        Wall        Calls

--------------------------------------------------------------------------------------

**************************************************************************************

Host: cfeld-pcx14803

Timers On : Tue Apr 13 14:02:28 2021
Timers Off: Tue Apr 13 14:02:32 2021

Wall Time:        4.40 seconds

                                                       Time (seconds)
Module                                       User      System        Wall        Calls

--------------------------------------------------------------------------------------

**************************************************************************************

Host: cfeld-pcx14803

Timers On : Tue Apr 13 14:04:07 2021
Timers Off: Tue Apr 13 14:04:11 2021

Wall Time:        3.99 seconds

                                                       Time (seconds)
Module                                       User      System        Wall        Calls

--------------------------------------------------------------------------------------

**************************************************************************************

Host: cfeld-pcx14803

Timers On : Tue Apr 13 14:06:07 2021
Timers Off: Tue Apr 13 14:06:11 2021

Wall Time:        3.76 seconds

                                                       Time (seconds)
Module                                       User      System        Wall        Calls

--------------------------------------------------------------------------------------

**************************************************************************************

Host: cfeld-pcx14803

Timers On : Tue Apr 13 14:37:11 2021
Timers Off: Tue Apr 13 14:37:16 2021

Wall Time:        5.07 seconds

                                                       Time (seconds)
Module                                       User      System        Wall        Calls

--------------------------------------------------------------------------------------

**************************************************************************************

Host: cfeld-pcx14803

Timers On : Tue Apr 13 14:44:17 2021
Timers Off: Tue Apr 13 14:44:19 2021

Wall Time:        1.44 seconds

                                                       Time (seconds)
Module                                       User      System        Wall        Calls

--------------------------------------------------------------------------------------

**************************************************************************************

Host: cfeld-pcx14803

Timers On : Tue Apr 13 14:44:26 2021
Timers Off: Tue Apr 13 14:44:27 2021

Wall Time:        1.55 seconds

                                                       Time (seconds)
Module                                       User      System        Wall        Calls

--------------------------------------------------------------------------------------

**************************************************************************************

Host: cfeld-pcx14803

Timers On : Tue Apr 13 14:44:35 2021
Timers Off: Tue Apr 13 14:44:37 2021

Wall Time:        2.05 seconds

                                                       Time (seconds)
Module                                       User      System        Wall        Calls

--------------------------------------------------------------------------------------

**************************************************************************************

Host: cfeld-pcx14803

Timers On : Tue Apr 13 14:46:52 2021
Timers Off: Tue Apr 13 14:46:55 2021

Wall Time:        2.07 seconds

                                                       Time (seconds)
Module                                       User      System        Wall        Calls

--------------------------------------------------------------------------------------

**************************************************************************************

Host: cfeld-pcx14803

Timers On : Tue Apr 13 14:56:58 2021
Timers Off: Tue Apr 13 14:57:01 2021

Wall Time:        2.57 seconds

                                                       Time (seconds)
Module                                       User      System        Wall        Calls

--------------------------------------------------------------------------------------

**************************************************************************************

Host: cfeld-pcx14803

Timers On : Tue Apr 13 15:00:16 2021
Timers Off: Tue Apr 13 15:00:19 2021

Wall Time:        2.93 seconds

                                                       Time (seconds)
Module                                       User      System        Wall        Calls

--------------------------------------------------------------------------------------

**************************************************************************************

Host: cfeld-pcx14803

Timers On : Tue Apr 13 15:01:08 2021
Timers Off: Tue Apr 13 15:01:14 2021

Wall Time:        6.11 seconds

                                                       Time (seconds)
Module                                       User      System        Wall        Calls

--------------------------------------------------------------------------------------

**************************************************************************************

Host: cfeld-pcx14803

Timers On : Tue Apr 13 15:10:05 2021
Timers Off: Tue Apr 13 15:10:21 2021

Wall Time:       15.97 seconds

                                                       Time (seconds)
Module                                       User      System        Wall        Calls

--------------------------------------------------------------------------------------

**************************************************************************************

Host: cfeld-pcx14803

Timers On : Tue Apr 13 15:12:34 2021
Timers Off: Tue Apr 13 15:12:36 2021

Wall Time:        2.21 seconds

                                                       Time (seconds)
Module                                       User      System        Wall        Calls

--------------------------------------------------------------------------------------

**************************************************************************************

Host: cfeld-pcx14803

Timers On : Tue Apr 13 15:12:55 2021
Timers Off: Tue Apr 13 15:12:57 2021

Wall Time:        2.52 seconds

                                                       Time (seconds)
Module                                       User      System        Wall        Calls

--------------------------------------------------------------------------------------

**************************************************************************************

Host: cfeld-pcx14803

Timers On : Tue Apr 13 15:13:29 2021
Timers Off: Tue Apr 13 15:13:31 2021

Wall Time:        1.77 seconds

                                                       Time (seconds)
Module                                       User      System        Wall        Calls

--------------------------------------------------------------------------------------

**************************************************************************************

Host: cfeld-pcx14803

Timers On : Tue Apr 13 15:13:45 2021
Timers Off: Tue Apr 13 15:13:47 2021

Wall Time:        1.54 seconds

                                                       Time (seconds)
Module                                       User      System        Wall        Calls

--------------------------------------------------------------------------------------

**************************************************************************************

Host: cfeld-pcx14803

Timers On : Tue Apr 13 15:28:00 2021
Timers Off: Tue Apr 13 15:28:03 2021

Wall Time:        2.49 seconds

                                                       Time (seconds)
Module                                       User      System        Wall        Calls

--------------------------------------------------------------------------------------

**************************************************************************************

Host: cfeld-pcx14803

Timers On : Tue Apr 13 15:56:51 2021
Timers Off: Tue Apr 13 15:56:53 2021

Wall Time:        2.51 seconds

                                                       Time (seconds)
Module                                       User      System        Wall        Calls

--------------------------------------------------------------------------------------

**************************************************************************************

Host: cfeld-pcx14803

Timers On : Tue Apr 13 16:00:24 2021
Timers Off: Tue Apr 13 16:00:26 2021

Wall Time:        1.97 seconds

                                                       Time (seconds)
Module                                       User      System        Wall        Calls

--------------------------------------------------------------------------------------

**************************************************************************************

Host: cfeld-pcx14803

Timers On : Tue Apr 13 16:01:11 2021
Timers Off: Tue Apr 13 16:01:12 2021

Wall Time:        1.53 seconds

                                                       Time (seconds)
Module                                       User      System        Wall        Calls

--------------------------------------------------------------------------------------

**************************************************************************************

Host: cfeld-pcx14803

Timers On : Tue Apr 13 16:08:25 2021
Timers Off: Tue Apr 13 16:08:27 2021

Wall Time:        1.54 seconds

                                                       Time (seconds)
Module                                       User      System        Wall        Calls

--------------------------------------------------------------------------------------

**************************************************************************************

Host: cfeld-pcx14803

Timers On : Tue Apr 13 16:09:44 2021
Timers Off: Tue Apr 13 16:09:46 2021

Wall Time:        1.15 seconds

                                                       Time (seconds)
Module                                       User      System        Wall        Calls

--------------------------------------------------------------------------------------

**************************************************************************************

Host: cfeld-pcx14803

Timers On : Tue Apr 13 16:10:01 2021
Timers Off: Tue Apr 13 16:10:02 2021

Wall Time:        1.27 seconds

                                                       Time (seconds)
Module                                       User      System        Wall        Calls

--------------------------------------------------------------------------------------

**************************************************************************************

Host: cfeld-pcx14803

Timers On : Tue Apr 13 16:10:11 2021
Timers Off: Tue Apr 13 16:10:12 2021

Wall Time:        1.18 seconds

                                                       Time (seconds)
Module                                       User      System        Wall        Calls

--------------------------------------------------------------------------------------

**************************************************************************************

Host: cfeld-pcx14803

Timers On : Tue Apr 13 16:11:09 2021
Timers Off: Tue Apr 13 16:11:10 2021

Wall Time:        1.19 seconds

                                                       Time (seconds)
Module                                       User      System        Wall        Calls

--------------------------------------------------------------------------------------

**************************************************************************************

Host: cfeld-pcx14803

Timers On : Tue Apr 13 16:12:39 2021
Timers Off: Tue Apr 13 16:12:40 2021

Wall Time:        1.42 seconds

                                                       Time (seconds)
Module                                       User      System        Wall        Calls

--------------------------------------------------------------------------------------

**************************************************************************************

Host: cfeld-pcx14803

Timers On : Tue Apr 13 16:13:15 2021
Timers Off: Tue Apr 13 16:13:26 2021

Wall Time:       11.55 seconds

                                                       Time (seconds)
Module                                       User      System        Wall        Calls

--------------------------------------------------------------------------------------

**************************************************************************************

Host: cfeld-pcx14803

Timers On : Tue Apr 13 16:21:22 2021
Timers Off: Tue Apr 13 16:21:34 2021

Wall Time:       12.70 seconds

                                                       Time (seconds)
Module                                       User      System        Wall        Calls

--------------------------------------------------------------------------------------

**************************************************************************************

Host: cfeld-pcx14803

Timers On : Tue Apr 13 16:25:00 2021
Timers Off: Tue Apr 13 16:25:14 2021

Wall Time:       13.56 seconds

                                                       Time (seconds)
Module                                       User      System        Wall        Calls

--------------------------------------------------------------------------------------

**************************************************************************************

Host: cfeld-pcx14803

Timers On : Tue Apr 13 16:25:35 2021
Timers Off: Tue Apr 13 16:25:49 2021

Wall Time:       13.84 seconds

                                                       Time (seconds)
Module                                       User      System        Wall        Calls

--------------------------------------------------------------------------------------

**************************************************************************************

Host: cfeld-pcx14803

Timers On : Tue Apr 13 16:37:40 2021
Timers Off: Tue Apr 13 16:37:53 2021

Wall Time:       13.12 seconds

                                                       Time (seconds)
Module                                       User      System        Wall        Calls

--------------------------------------------------------------------------------------

**************************************************************************************

Host: cfeld-pcx14803

Timers On : Tue Apr 13 16:38:12 2021
Timers Off: Tue Apr 13 16:39:44 2021

Wall Time:       92.14 seconds

                                                       Time (seconds)
Module                                       User      System        Wall        Calls

--------------------------------------------------------------------------------------

**************************************************************************************

Host: cfeld-pcx14803

Timers On : Tue Apr 13 16:46:50 2021
Timers Off: Tue Apr 13 16:47:13 2021

Wall Time:       23.97 seconds

                                                       Time (seconds)
Module                                       User      System        Wall        Calls

--------------------------------------------------------------------------------------

**************************************************************************************

Host: cfeld-pcx14803

Timers On : Tue Apr 13 16:47:34 2021
Timers Off: Tue Apr 13 16:48:37 2021

Wall Time:       63.59 seconds

                                                       Time (seconds)
Module                                       User      System        Wall        Calls

--------------------------------------------------------------------------------------

**************************************************************************************

Host: cfeld-pcx14803

Timers On : Wed Apr 14 12:14:18 2021
Timers Off: Wed Apr 14 12:14:26 2021

Wall Time:        8.60 seconds

                                                       Time (seconds)
Module                                       User      System        Wall        Calls

--------------------------------------------------------------------------------------

**************************************************************************************

Host: cfeld-pcx14803

Timers On : Wed Apr 14 15:08:03 2021
Timers Off: Wed Apr 14 15:08:26 2021

Wall Time:       22.80 seconds

                                                       Time (seconds)
Module                                       User      System        Wall        Calls

--------------------------------------------------------------------------------------

**************************************************************************************

Host: cfeld-pcx14803

Timers On : Wed Apr 14 15:09:51 2021
Timers Off: Wed Apr 14 15:09:57 2021

Wall Time:        5.97 seconds

                                                       Time (seconds)
Module                                       User      System        Wall        Calls

--------------------------------------------------------------------------------------

**************************************************************************************

Host: cfeld-pcx14803

Timers On : Wed Apr 14 15:10:44 2021
Timers Off: Wed Apr 14 15:10:50 2021

Wall Time:        6.25 seconds

                                                       Time (seconds)
Module                                       User      System        Wall        Calls

--------------------------------------------------------------------------------------

**************************************************************************************

Host: cfeld-pcx14803

Timers On : Thu Apr 15 09:55:45 2021
Timers Off: Thu Apr 15 09:55:51 2021

Wall Time:        5.18 seconds

                                                       Time (seconds)
Module                                       User      System        Wall        Calls

--------------------------------------------------------------------------------------

**************************************************************************************

Host: cfeld-pcx14803

Timers On : Thu Apr 15 10:14:35 2021
Timers Off: Thu Apr 15 10:14:40 2021

Wall Time:        5.11 seconds

                                                       Time (seconds)
Module                                       User      System        Wall        Calls

--------------------------------------------------------------------------------------

**************************************************************************************

Host: cfeld-pcx14803

Timers On : Thu Apr 15 10:14:58 2021
Timers Off: Thu Apr 15 10:15:00 2021

Wall Time:        2.23 seconds

                                                       Time (seconds)
Module                                       User      System        Wall        Calls

--------------------------------------------------------------------------------------

**************************************************************************************

Host: cfeld-pcx14803

Timers On : Thu Apr 15 10:15:13 2021
Timers Off: Thu Apr 15 10:15:21 2021

Wall Time:        8.83 seconds

                                                       Time (seconds)
Module                                       User      System        Wall        Calls

--------------------------------------------------------------------------------------

**************************************************************************************

Host: cfeld-pcx14803

Timers On : Thu Apr 15 10:15:41 2021
Timers Off: Thu Apr 15 10:15:48 2021

Wall Time:        7.37 seconds

                                                       Time (seconds)
Module                                       User      System        Wall        Calls

--------------------------------------------------------------------------------------

**************************************************************************************

Host: cfeld-pcx14803

Timers On : Thu Apr 15 10:16:36 2021
Timers Off: Thu Apr 15 10:16:44 2021

Wall Time:        7.76 seconds

                                                       Time (seconds)
Module                                       User      System        Wall        Calls

--------------------------------------------------------------------------------------

**************************************************************************************

Host: cfeld-pcx14803

Timers On : Thu Apr 15 10:17:31 2021
Timers Off: Thu Apr 15 10:17:33 2021

Wall Time:        1.64 seconds

                                                       Time (seconds)
Module                                       User      System        Wall        Calls

--------------------------------------------------------------------------------------

**************************************************************************************

Host: cfeld-pcx14803

Timers On : Thu Apr 15 10:17:41 2021
Timers Off: Thu Apr 15 10:17:52 2021

Wall Time:       10.36 seconds

                                                       Time (seconds)
Module                                       User      System        Wall        Calls

--------------------------------------------------------------------------------------

**************************************************************************************

Host: cfeld-pcx14803

Timers On : Thu Apr 15 10:18:25 2021
Timers Off: Thu Apr 15 10:18:33 2021

Wall Time:        8.31 seconds

                                                       Time (seconds)
Module                                       User      System        Wall        Calls

--------------------------------------------------------------------------------------

**************************************************************************************

Host: cfeld-pcx14803

Timers On : Thu Apr 15 10:18:59 2021
Timers Off: Thu Apr 15 10:19:08 2021

Wall Time:        8.98 seconds

                                                       Time (seconds)
Module                                       User      System        Wall        Calls

--------------------------------------------------------------------------------------

**************************************************************************************

Host: cfeld-pcx14803

Timers On : Thu Apr 15 10:19:19 2021
Timers Off: Thu Apr 15 10:20:05 2021

Wall Time:       45.96 seconds

                                                       Time (seconds)
Module                                       User      System        Wall        Calls

--------------------------------------------------------------------------------------

**************************************************************************************

Host: cfeld-pcx14803

Timers On : Thu Apr 15 10:21:57 2021
Timers Off: Thu Apr 15 10:22:46 2021

Wall Time:       49.07 seconds

                                                       Time (seconds)
Module                                       User      System        Wall        Calls

--------------------------------------------------------------------------------------

**************************************************************************************

Host: cfeld-pcx14803

Timers On : Thu Apr 15 10:26:37 2021
Timers Off: Thu Apr 15 10:26:46 2021

Wall Time:        8.53 seconds

                                                       Time (seconds)
Module                                       User      System        Wall        Calls

--------------------------------------------------------------------------------------

**************************************************************************************

Host: cfeld-pcx14803

Timers On : Thu Apr 15 10:28:54 2021
Timers Off: Thu Apr 15 10:30:54 2021

Wall Time:      119.34 seconds

                                                       Time (seconds)
Module                                       User      System        Wall        Calls

--------------------------------------------------------------------------------------

**************************************************************************************

Host: cfeld-pcx14803

Timers On : Thu Apr 15 10:37:50 2021
Timers Off: Thu Apr 15 10:38:34 2021

Wall Time:       43.96 seconds

                                                       Time (seconds)
Module                                       User      System        Wall        Calls

--------------------------------------------------------------------------------------

**************************************************************************************

Host: cfeld-pcx14803

Timers On : Thu Apr 15 10:39:19 2021
Timers Off: Thu Apr 15 10:39:35 2021

Wall Time:       15.72 seconds

                                                       Time (seconds)
Module                                       User      System        Wall        Calls

--------------------------------------------------------------------------------------

**************************************************************************************

Host: cfeld-pcx14803

Timers On : Thu Apr 15 10:39:54 2021
Timers Off: Thu Apr 15 10:40:10 2021

Wall Time:       15.20 seconds

                                                       Time (seconds)
Module                                       User      System        Wall        Calls

--------------------------------------------------------------------------------------

**************************************************************************************

Host: cfeld-pcx14803

Timers On : Thu Apr 15 10:40:15 2021
Timers Off: Thu Apr 15 10:40:31 2021

Wall Time:       16.52 seconds

                                                       Time (seconds)
Module                                       User      System        Wall        Calls

--------------------------------------------------------------------------------------

**************************************************************************************

Host: cfeld-pcx14803

Timers On : Thu Apr 15 10:58:43 2021
Timers Off: Thu Apr 15 10:59:00 2021

Wall Time:       16.83 seconds

                                                       Time (seconds)
Module                                       User      System        Wall        Calls

--------------------------------------------------------------------------------------

**************************************************************************************

Host: cfeld-pcx14803

Timers On : Thu Apr 15 10:59:21 2021
Timers Off: Thu Apr 15 10:59:52 2021

Wall Time:       30.64 seconds

                                                       Time (seconds)
Module                                       User      System        Wall        Calls

--------------------------------------------------------------------------------------

**************************************************************************************

Host: cfeld-pcx14803

Timers On : Thu Apr 15 11:12:30 2021
Timers Off: Thu Apr 15 11:12:42 2021

Wall Time:       12.11 seconds

                                                       Time (seconds)
Module                                       User      System        Wall        Calls

--------------------------------------------------------------------------------------

**************************************************************************************

Host: cfeld-pcx14803

Timers On : Thu Apr 15 11:13:46 2021
Timers Off: Thu Apr 15 11:14:13 2021

Wall Time:       27.10 seconds

                                                       Time (seconds)
Module                                       User      System        Wall        Calls

--------------------------------------------------------------------------------------

**************************************************************************************

Host: cfeld-pcx14803

Timers On : Fri Apr 16 09:14:17 2021
Timers Off: Fri Apr 16 09:14:18 2021

Wall Time:        1.45 seconds

                                                       Time (seconds)
Module                                       User      System        Wall        Calls

--------------------------------------------------------------------------------------

**************************************************************************************

Host: cfeld-pcx14803

Timers On : Fri Apr 16 09:15:43 2021
Timers Off: Fri Apr 16 09:15:44 2021

Wall Time:        1.01 seconds

                                                       Time (seconds)
Module                                       User      System        Wall        Calls

--------------------------------------------------------------------------------------

**************************************************************************************

Host: cfeld-pcx14803

Timers On : Fri Apr 16 09:21:25 2021
Timers Off: Fri Apr 16 09:21:27 2021

Wall Time:        1.35 seconds

                                                       Time (seconds)
Module                                       User      System        Wall        Calls

--------------------------------------------------------------------------------------

**************************************************************************************

Host: cfeld-pcx14803

Timers On : Fri Apr 16 09:21:45 2021
Timers Off: Fri Apr 16 09:21:46 2021

Wall Time:        0.93 seconds

                                                       Time (seconds)
Module                                       User      System        Wall        Calls

--------------------------------------------------------------------------------------

**************************************************************************************

Host: cfeld-pcx14803

Timers On : Fri Apr 16 09:22:04 2021
Timers Off: Fri Apr 16 09:22:05 2021

Wall Time:        0.99 seconds

                                                       Time (seconds)
Module                                       User      System        Wall        Calls

--------------------------------------------------------------------------------------

**************************************************************************************

Host: cfeld-pcx14803

Timers On : Fri Apr 16 09:24:26 2021
Timers Off: Fri Apr 16 09:24:27 2021

Wall Time:        1.20 seconds

                                                       Time (seconds)
Module                                       User      System        Wall        Calls

--------------------------------------------------------------------------------------

**************************************************************************************

Host: cfeld-pcx14803

Timers On : Fri Apr 16 09:25:09 2021
Timers Off: Fri Apr 16 09:25:10 2021

Wall Time:        0.98 seconds

                                                       Time (seconds)
Module                                       User      System        Wall        Calls

--------------------------------------------------------------------------------------

**************************************************************************************

Host: cfeld-pcx14803

Timers On : Fri Apr 16 09:25:24 2021
Timers Off: Fri Apr 16 09:25:25 2021

Wall Time:        1.07 seconds

                                                       Time (seconds)
Module                                       User      System        Wall        Calls

--------------------------------------------------------------------------------------

**************************************************************************************

Host: cfeld-pcx14803

Timers On : Fri Apr 16 09:25:57 2021
Timers Off: Fri Apr 16 09:26:07 2021

Wall Time:        9.60 seconds

                                                       Time (seconds)
Module                                       User      System        Wall        Calls

--------------------------------------------------------------------------------------

**************************************************************************************

Host: cfeld-pcx14803

Timers On : Fri Apr 16 09:26:43 2021
Timers Off: Fri Apr 16 09:27:08 2021

Wall Time:       24.95 seconds

                                                       Time (seconds)
Module                                       User      System        Wall        Calls

--------------------------------------------------------------------------------------

**************************************************************************************

Host: cfeld-pcx14803

Timers On : Fri Apr 16 09:28:08 2021
Timers Off: Fri Apr 16 09:29:54 2021

Wall Time:      106.09 seconds

                                                       Time (seconds)
Module                                       User      System        Wall        Calls

--------------------------------------------------------------------------------------

**************************************************************************************

Host: cfeld-pcx14803

Timers On : Fri Apr 16 09:30:01 2021
Timers Off: Fri Apr 16 09:36:46 2021

Wall Time:      405.15 seconds

                                                       Time (seconds)
Module                                       User      System        Wall        Calls

--------------------------------------------------------------------------------------

**************************************************************************************

Host: cfeld-pcx14803

Timers On : Fri Apr 16 09:45:16 2021
Timers Off: Fri Apr 16 09:47:04 2021

Wall Time:      107.88 seconds

                                                       Time (seconds)
Module                                       User      System        Wall        Calls

--------------------------------------------------------------------------------------

**************************************************************************************

Host: cfeld-pcx14803

Timers On : Fri Apr 16 09:47:21 2021
Timers Off: Fri Apr 16 09:48:59 2021

Wall Time:       98.17 seconds

                                                       Time (seconds)
Module                                       User      System        Wall        Calls

--------------------------------------------------------------------------------------

**************************************************************************************

Host: cfeld-pcx14803

Timers On : Mon Apr 19 11:08:39 2021
Timers Off: Mon Apr 19 11:08:46 2021

Wall Time:        6.73 seconds

                                                       Time (seconds)
Module                                       User      System        Wall        Calls

--------------------------------------------------------------------------------------

**************************************************************************************

Host: cfeld-pcx14803

Timers On : Mon Apr 19 11:11:11 2021
Timers Off: Mon Apr 19 11:11:55 2021

Wall Time:       43.90 seconds

                                                       Time (seconds)
Module                                       User      System        Wall        Calls

--------------------------------------------------------------------------------------

**************************************************************************************

Host: cfeld-pcx14803

Timers On : Mon Apr 19 11:21:28 2021
Timers Off: Mon Apr 19 11:22:14 2021

Wall Time:       45.14 seconds

                                                       Time (seconds)
Module                                       User      System        Wall        Calls

--------------------------------------------------------------------------------------

**************************************************************************************

Host: cfeld-pcx14803

Timers On : Mon Apr 19 11:23:31 2021
Timers Off: Mon Apr 19 11:23:53 2021

Wall Time:       21.64 seconds

                                                       Time (seconds)
Module                                       User      System        Wall        Calls

--------------------------------------------------------------------------------------

**************************************************************************************

Host: cfeld-pcx14803

Timers On : Mon Apr 19 11:24:59 2021
Timers Off: Mon Apr 19 11:25:11 2021

Wall Time:       11.75 seconds

                                                       Time (seconds)
Module                                       User      System        Wall        Calls

--------------------------------------------------------------------------------------

**************************************************************************************

Host: cfeld-pcx14803

Timers On : Mon Apr 19 11:25:38 2021
Timers Off: Mon Apr 19 11:35:22 2021

Wall Time:      584.02 seconds

                                                       Time (seconds)
Module                                       User      System        Wall        Calls

--------------------------------------------------------------------------------------

**************************************************************************************

Host: cfeld-pcx14803

Timers On : Mon Apr 19 11:36:12 2021
Timers Off: Mon Apr 19 11:36:18 2021

Wall Time:        6.28 seconds

                                                       Time (seconds)
Module                                       User      System        Wall        Calls

--------------------------------------------------------------------------------------

**************************************************************************************

Host: cfeld-pcx14803

Timers On : Mon Apr 19 11:37:32 2021
Timers Off: Mon Apr 19 11:37:39 2021

Wall Time:        7.07 seconds

                                                       Time (seconds)
Module                                       User      System        Wall        Calls

--------------------------------------------------------------------------------------

**************************************************************************************

Host: cfeld-pcx14803

Timers On : Mon Apr 19 12:30:33 2021
Timers Off: Mon Apr 19 12:30:40 2021

Wall Time:        7.74 seconds

                                                       Time (seconds)
Module                                       User      System        Wall        Calls

--------------------------------------------------------------------------------------

**************************************************************************************

Host: cfeld-pcx14803

Timers On : Mon Apr 19 12:31:56 2021
Timers Off: Mon Apr 19 12:32:11 2021

Wall Time:       15.11 seconds

                                                       Time (seconds)
Module                                       User      System        Wall        Calls

--------------------------------------------------------------------------------------

**************************************************************************************

Host: cfeld-pcx14803

Timers On : Mon Apr 19 12:34:22 2021
Timers Off: Mon Apr 19 12:34:44 2021

Wall Time:       22.47 seconds

                                                       Time (seconds)
Module                                       User      System        Wall        Calls

--------------------------------------------------------------------------------------

**************************************************************************************

Host: cfeld-pcx14803

Timers On : Mon Apr 19 12:34:57 2021
Timers Off: Mon Apr 19 12:36:06 2021

Wall Time:       69.52 seconds

                                                       Time (seconds)
Module                                       User      System        Wall        Calls

--------------------------------------------------------------------------------------

**************************************************************************************

Host: cfeld-pcx14803

Timers On : Mon Apr 19 12:36:56 2021
Timers Off: Mon Apr 19 12:43:35 2021

Wall Time:      398.69 seconds

                                                       Time (seconds)
Module                                       User      System        Wall        Calls

--------------------------------------------------------------------------------------

**************************************************************************************

Host: cfeld-pcx14803

Timers On : Mon Apr 19 13:04:59 2021
Timers Off: Mon Apr 19 13:05:05 2021

Wall Time:        6.08 seconds

                                                       Time (seconds)
Module                                       User      System        Wall        Calls

--------------------------------------------------------------------------------------

**************************************************************************************

Host: cfeld-pcx14803

Timers On : Mon Apr 19 13:06:53 2021
Timers Off: Mon Apr 19 13:09:16 2021

Wall Time:      142.68 seconds

                                                       Time (seconds)
Module                                       User      System        Wall        Calls

--------------------------------------------------------------------------------------

**************************************************************************************

Host: cfeld-pcx14803

Timers On : Mon Apr 19 13:12:13 2021
Timers Off: Mon Apr 19 13:12:43 2021

Wall Time:       29.82 seconds

                                                       Time (seconds)
Module                                       User      System        Wall        Calls

--------------------------------------------------------------------------------------

**************************************************************************************

Host: cfeld-pcx14803

Timers On : Mon Apr 19 13:14:27 2021
Timers Off: Mon Apr 19 13:15:12 2021

Wall Time:       45.48 seconds

                                                       Time (seconds)
Module                                       User      System        Wall        Calls

--------------------------------------------------------------------------------------

**************************************************************************************

Host: cfeld-pcx14803

Timers On : Mon Apr 19 13:19:59 2021
Timers Off: Mon Apr 19 13:20:22 2021

Wall Time:       23.16 seconds

                                                       Time (seconds)
Module                                       User      System        Wall        Calls

--------------------------------------------------------------------------------------

**************************************************************************************

Host: cfeld-pcx14803

Timers On : Mon Apr 19 13:21:03 2021
Timers Off: Mon Apr 19 13:21:16 2021

Wall Time:       12.82 seconds

                                                       Time (seconds)
Module                                       User      System        Wall        Calls

--------------------------------------------------------------------------------------

**************************************************************************************

Host: cfeld-pcx14803

Timers On : Tue Apr 20 08:48:15 2021
Timers Off: Tue Apr 20 08:48:22 2021

Wall Time:        6.96 seconds

                                                       Time (seconds)
Module                                       User      System        Wall        Calls

--------------------------------------------------------------------------------------

**************************************************************************************

Host: cfeld-pcx14803

Timers On : Tue Apr 20 09:04:51 2021
Timers Off: Tue Apr 20 09:06:24 2021

Wall Time:       93.52 seconds

                                                       Time (seconds)
Module                                       User      System        Wall        Calls

--------------------------------------------------------------------------------------

**************************************************************************************

Host: cfeld-pcx14803

Timers On : Tue Apr 20 09:09:10 2021
Timers Off: Tue Apr 20 09:09:44 2021

Wall Time:       33.16 seconds

                                                       Time (seconds)
Module                                       User      System        Wall        Calls

--------------------------------------------------------------------------------------

**************************************************************************************

Host: cfeld-pcx14803

Timers On : Tue Apr 20 09:10:57 2021
Timers Off: Tue Apr 20 09:12:36 2021

Wall Time:       99.70 seconds

                                                       Time (seconds)
Module                                       User      System        Wall        Calls

--------------------------------------------------------------------------------------

**************************************************************************************

Host: cfeld-pcx14803

Timers On : Tue Apr 20 09:17:28 2021
Timers Off: Tue Apr 20 09:17:50 2021

Wall Time:       22.32 seconds

                                                       Time (seconds)
Module                                       User      System        Wall        Calls

--------------------------------------------------------------------------------------

**************************************************************************************

Host: cfeld-pcx14803

Timers On : Tue Apr 20 09:24:42 2021
Timers Off: Tue Apr 20 09:24:58 2021

Wall Time:       16.21 seconds

                                                       Time (seconds)
Module                                       User      System        Wall        Calls

--------------------------------------------------------------------------------------

**************************************************************************************

Host: cfeld-pcx14803

Timers On : Tue Apr 20 09:26:05 2021
Timers Off: Tue Apr 20 09:28:44 2021

Wall Time:      159.20 seconds

                                                       Time (seconds)
Module                                       User      System        Wall        Calls

--------------------------------------------------------------------------------------

**************************************************************************************

Host: cfeld-pcx14803

Timers On : Tue Apr 20 09:28:48 2021
Timers Off: Tue Apr 20 09:29:16 2021

Wall Time:       27.66 seconds

                                                       Time (seconds)
Module                                       User      System        Wall        Calls

--------------------------------------------------------------------------------------

**************************************************************************************

Host: cfeld-pcx14803

Timers On : Tue Apr 20 09:30:17 2021
Timers Off: Tue Apr 20 09:30:38 2021

Wall Time:       20.10 seconds

                                                       Time (seconds)
Module                                       User      System        Wall        Calls

--------------------------------------------------------------------------------------

**************************************************************************************

Host: cfeld-pcx14803

Timers On : Tue Apr 20 09:30:51 2021
Timers Off: Tue Apr 20 09:31:07 2021

Wall Time:       16.91 seconds

                                                       Time (seconds)
Module                                       User      System        Wall        Calls

--------------------------------------------------------------------------------------

**************************************************************************************

Host: cfeld-pcx14803

Timers On : Tue Apr 20 09:31:22 2021
Timers Off: Tue Apr 20 09:31:38 2021

Wall Time:       15.79 seconds

                                                       Time (seconds)
Module                                       User      System        Wall        Calls

--------------------------------------------------------------------------------------

**************************************************************************************

Host: cfeld-pcx14803

Timers On : Tue Apr 20 09:33:46 2021
Timers Off: Tue Apr 20 09:33:51 2021

Wall Time:        4.66 seconds

                                                       Time (seconds)
Module                                       User      System        Wall        Calls

--------------------------------------------------------------------------------------

**************************************************************************************

Host: cfeld-pcx14803

Timers On : Tue Apr 20 09:34:26 2021
Timers Off: Tue Apr 20 09:34:52 2021

Wall Time:       26.01 seconds

                                                       Time (seconds)
Module                                       User      System        Wall        Calls

--------------------------------------------------------------------------------------

**************************************************************************************

Host: cfeld-pcx14803

Timers On : Tue Apr 20 09:40:55 2021
Timers Off: Tue Apr 20 09:41:56 2021

Wall Time:       60.72 seconds

                                                       Time (seconds)
Module                                       User      System        Wall        Calls

--------------------------------------------------------------------------------------

**************************************************************************************

Host: cfeld-pcx14803

Timers On : Tue Apr 20 09:43:42 2021
Timers Off: Tue Apr 20 09:44:12 2021

Wall Time:       30.56 seconds

                                                       Time (seconds)
Module                                       User      System        Wall        Calls

--------------------------------------------------------------------------------------

**************************************************************************************

Host: cfeld-pcx14803

Timers On : Tue Apr 20 09:47:09 2021
Timers Off: Tue Apr 20 09:47:47 2021

Wall Time:       38.18 seconds

                                                       Time (seconds)
Module                                       User      System        Wall        Calls

--------------------------------------------------------------------------------------

**************************************************************************************

Host: cfeld-pcx14803

Timers On : Tue Apr 20 09:52:54 2021
Timers Off: Tue Apr 20 09:53:24 2021

Wall Time:       29.90 seconds

                                                       Time (seconds)
Module                                       User      System        Wall        Calls

--------------------------------------------------------------------------------------

**************************************************************************************

Host: cfeld-pcx14803

Timers On : Tue Apr 20 09:56:06 2021
Timers Off: Tue Apr 20 09:56:32 2021

Wall Time:       26.16 seconds

                                                       Time (seconds)
Module                                       User      System        Wall        Calls

--------------------------------------------------------------------------------------

**************************************************************************************

Host: cfeld-pcx14803

Timers On : Tue Apr 20 09:57:20 2021
Timers Off: Tue Apr 20 09:58:01 2021

Wall Time:       41.76 seconds

                                                       Time (seconds)
Module                                       User      System        Wall        Calls

--------------------------------------------------------------------------------------

**************************************************************************************

Host: cfeld-pcx14803

Timers On : Tue Apr 20 09:58:10 2021
Timers Off: Tue Apr 20 09:58:47 2021

Wall Time:       37.45 seconds

                                                       Time (seconds)
Module                                       User      System        Wall        Calls

--------------------------------------------------------------------------------------

**************************************************************************************

Host: cfeld-pcx14803

Timers On : Tue Apr 20 10:01:33 2021
Timers Off: Tue Apr 20 10:02:02 2021

Wall Time:       29.67 seconds

                                                       Time (seconds)
Module                                       User      System        Wall        Calls

--------------------------------------------------------------------------------------

**************************************************************************************

Host: cfeld-pcx14803

Timers On : Tue Apr 20 10:03:20 2021
Timers Off: Tue Apr 20 10:03:51 2021

Wall Time:       30.08 seconds

                                                       Time (seconds)
Module                                       User      System        Wall        Calls

--------------------------------------------------------------------------------------

**************************************************************************************

Host: cfeld-pcx14803

Timers On : Tue Apr 20 10:05:11 2021
Timers Off: Tue Apr 20 10:05:23 2021

Wall Time:       11.66 seconds

                                                       Time (seconds)
Module                                       User      System        Wall        Calls

--------------------------------------------------------------------------------------

**************************************************************************************

Host: cfeld-pcx14803

Timers On : Tue Apr 20 10:05:36 2021
Timers Off: Tue Apr 20 10:05:46 2021

Wall Time:       10.55 seconds

                                                       Time (seconds)
Module                                       User      System        Wall        Calls

--------------------------------------------------------------------------------------

**************************************************************************************

Host: cfeld-pcx14803

Timers On : Tue Apr 20 10:06:06 2021
Timers Off: Tue Apr 20 10:06:38 2021

Wall Time:       31.95 seconds

                                                       Time (seconds)
Module                                       User      System        Wall        Calls

--------------------------------------------------------------------------------------

**************************************************************************************

Host: cfeld-pcx14803

Timers On : Tue Apr 20 10:06:41 2021
Timers Off: Tue Apr 20 10:08:06 2021

Wall Time:       84.56 seconds

                                                       Time (seconds)
Module                                       User      System        Wall        Calls

--------------------------------------------------------------------------------------

**************************************************************************************

Host: cfeld-pcx14803

Timers On : Tue Apr 20 10:09:30 2021
Timers Off: Tue Apr 20 10:10:21 2021

Wall Time:       51.64 seconds

                                                       Time (seconds)
Module                                       User      System        Wall        Calls

--------------------------------------------------------------------------------------

**************************************************************************************

Host: cfeld-pcx14803

Timers On : Tue Apr 20 10:12:33 2021
Timers Off: Tue Apr 20 10:15:24 2021

Wall Time:      171.45 seconds

                                                       Time (seconds)
Module                                       User      System        Wall        Calls

--------------------------------------------------------------------------------------

**************************************************************************************

Host: cfeld-pcx14803

Timers On : Tue Apr 20 10:35:37 2021
Timers Off: Tue Apr 20 10:36:15 2021

Wall Time:       37.51 seconds

                                                       Time (seconds)
Module                                       User      System        Wall        Calls

--------------------------------------------------------------------------------------

**************************************************************************************

Host: cfeld-pcx14803

Timers On : Tue Apr 20 10:37:54 2021
Timers Off: Tue Apr 20 10:38:14 2021

Wall Time:       20.01 seconds

                                                       Time (seconds)
Module                                       User      System        Wall        Calls

--------------------------------------------------------------------------------------

**************************************************************************************

Host: cfeld-pcx14803

Timers On : Tue Apr 20 10:38:31 2021
Timers Off: Tue Apr 20 10:43:25 2021

Wall Time:      294.45 seconds

                                                       Time (seconds)
Module                                       User      System        Wall        Calls

--------------------------------------------------------------------------------------

**************************************************************************************

Host: cfeld-pcx14803

Timers On : Tue Apr 20 10:45:36 2021
Timers Off: Tue Apr 20 10:50:15 2021

Wall Time:      279.51 seconds

                                                       Time (seconds)
Module                                       User      System        Wall        Calls

--------------------------------------------------------------------------------------

**************************************************************************************

Host: cfeld-pcx14803

Timers On : Tue Apr 20 11:11:32 2021
Timers Off: Tue Apr 20 11:12:59 2021

Wall Time:       86.52 seconds

                                                       Time (seconds)
Module                                       User      System        Wall        Calls

--------------------------------------------------------------------------------------

**************************************************************************************

Host: cfeld-pcx14803

Timers On : Tue Apr 20 11:13:03 2021
Timers Off: Tue Apr 20 11:14:08 2021

Wall Time:       65.02 seconds

                                                       Time (seconds)
Module                                       User      System        Wall        Calls

[...]

**************************************************************************************

Host: cfeld-pcx14803

Timers On : Tue Apr 27 12:13:01 2021
Timers Off: Tue Apr 27 12:13:48 2021

Wall Time:       47.05 seconds

                                                       Time (seconds)
Module                                       User      System        Wall        Calls

--------------------------------------------------------------------------------------

**************************************************************************************

Host: cfeld-pcx14803

Timers On : Tue Apr 27 13:05:38 2021
Timers Off: Tue Apr 27 13:05:45 2021

Wall Time:        7.50 seconds

                                                       Time (seconds)
Module                                       User      System        Wall        Calls

--------------------------------------------------------------------------------------

**************************************************************************************

Host: cfeld-pcx14803

Timers On : Tue Apr 27 13:11:10 2021
Timers Off: Tue Apr 27 13:11:22 2021

Wall Time:       11.38 seconds

                                                       Time (seconds)
Module                                       User      System        Wall        Calls

--------------------------------------------------------------------------------------

**************************************************************************************

Host: cfeld-pcx14803

Timers On : Tue Apr 27 14:50:41 2021
Timers Off: Tue Apr 27 14:51:54 2021

Wall Time:       73.02 seconds

                                                       Time (seconds)
Module                                       User      System        Wall        Calls

--------------------------------------------------------------------------------------

**************************************************************************************

Host: cfeld-pcx14803

Timers On : Tue Apr 27 14:53:31 2021
Timers Off: Tue Apr 27 15:11:36 2021

Wall Time:     1084.65 seconds

                                                       Time (seconds)
Module                                       User      System        Wall        Calls

--------------------------------------------------------------------------------------

**************************************************************************************

Host: cfeld-pcx14803

Timers On : Tue Apr 27 16:13:13 2021
Timers Off: Tue Apr 27 16:13:14 2021

Wall Time:        0.69 seconds

                                                       Time (seconds)
Module                                       User      System        Wall        Calls

--------------------------------------------------------------------------------------

**************************************************************************************

Host: cfeld-pcx14803

Timers On : Wed Apr 28 12:54:41 2021
Timers Off: Wed Apr 28 12:54:47 2021

Wall Time:        6.72 seconds

                                                       Time (seconds)
Module                                       User      System        Wall        Calls

--------------------------------------------------------------------------------------

**************************************************************************************

Host: cfeld-pcx14803

Timers On : Wed Apr 28 12:54:59 2021
Timers Off: Wed Apr 28 12:55:05 2021

Wall Time:        5.56 seconds

                                                       Time (seconds)
Module                                       User      System        Wall        Calls

--------------------------------------------------------------------------------------

**************************************************************************************

Host: cfeld-pcx14803

Timers On : Wed Apr 28 13:50:35 2021
Timers Off: Wed Apr 28 13:51:10 2021

Wall Time:       34.44 seconds

                                                       Time (seconds)
Module                                       User      System        Wall        Calls

--------------------------------------------------------------------------------------

**************************************************************************************

Host: cfeld-pcx14803

Timers On : Wed Apr 28 14:17:43 2021
Timers Off: Wed Apr 28 14:18:23 2021

Wall Time:       39.86 seconds

                                                       Time (seconds)
Module                                       User      System        Wall        Calls

--------------------------------------------------------------------------------------

**************************************************************************************

Host: cfeld-pcx14803

Timers On : Wed Apr 28 14:36:15 2021
Timers Off: Wed Apr 28 14:36:17 2021

Wall Time:        2.51 seconds

                                                       Time (seconds)
Module                                       User      System        Wall        Calls

--------------------------------------------------------------------------------------

**************************************************************************************

Host: cfeld-pcx14803

Timers On : Thu Apr 29 15:57:30 2021
Timers Off: Thu Apr 29 15:57:43 2021

Wall Time:       12.87 seconds

                                                       Time (seconds)
Module                                       User      System        Wall        Calls

--------------------------------------------------------------------------------------

**************************************************************************************

Host: cfeld-pcx14803

Timers On : Thu Apr 29 16:11:17 2021
Timers Off: Thu Apr 29 16:11:29 2021

Wall Time:       11.66 seconds

                                                       Time (seconds)
Module                                       User      System        Wall        Calls

--------------------------------------------------------------------------------------

**************************************************************************************

Host: cfeld-pcx14803

Timers On : Fri Apr 30 09:26:26 2021
Timers Off: Fri Apr 30 09:26:34 2021

Wall Time:        7.21 seconds

                                                       Time (seconds)
Module                                       User      System        Wall        Calls

--------------------------------------------------------------------------------------

**************************************************************************************

Host: cfeld-pcx14803

Timers On : Fri Apr 30 09:27:02 2021
Timers Off: Fri Apr 30 09:27:08 2021

Wall Time:        5.83 seconds

                                                       Time (seconds)
Module                                       User      System        Wall        Calls

--------------------------------------------------------------------------------------

**************************************************************************************

Host: cfeld-pcx14803

Timers On : Fri Apr 30 09:37:01 2021
Timers Off: Fri Apr 30 09:37:07 2021

Wall Time:        6.66 seconds

                                                       Time (seconds)
Module                                       User      System        Wall        Calls

--------------------------------------------------------------------------------------

**************************************************************************************

Host: cfeld-pcx14803

Timers On : Fri Apr 30 09:37:46 2021
Timers Off: Fri Apr 30 09:37:52 2021

Wall Time:        5.95 seconds

                                                       Time (seconds)
Module                                       User      System        Wall        Calls

--------------------------------------------------------------------------------------

**************************************************************************************

Host: cfeld-pcx14803

Timers On : Fri Apr 30 09:38:31 2021
Timers Off: Fri Apr 30 09:38:37 2021

Wall Time:        5.93 seconds

                                                       Time (seconds)
Module                                       User      System        Wall        Calls

--------------------------------------------------------------------------------------

**************************************************************************************

Host: cfeld-pcx14803

Timers On : Fri Apr 30 09:39:02 2021
Timers Off: Fri Apr 30 09:39:08 2021

Wall Time:        5.66 seconds

                                                       Time (seconds)
Module                                       User      System        Wall        Calls

--------------------------------------------------------------------------------------

**************************************************************************************

Host: cfeld-pcx14803

Timers On : Fri Apr 30 09:49:00 2021
Timers Off: Fri Apr 30 09:49:07 2021

Wall Time:        7.75 seconds

                                                       Time (seconds)
Module                                       User      System        Wall        Calls

--------------------------------------------------------------------------------------

**************************************************************************************

Host: cfeld-pcx14803

Timers On : Fri Apr 30 09:49:15 2021
Timers Off: Fri Apr 30 09:49:21 2021

Wall Time:        6.10 seconds

                                                       Time (seconds)
Module                                       User      System        Wall        Calls

--------------------------------------------------------------------------------------

**************************************************************************************

Host: cfeld-pcx14803

Timers On : Fri Apr 30 10:19:15 2021
Timers Off: Fri Apr 30 10:19:21 2021

Wall Time:        6.47 seconds

                                                       Time (seconds)
Module                                       User      System        Wall        Calls

--------------------------------------------------------------------------------------

**************************************************************************************

Host: cfeld-pcx14803

Timers On : Fri Apr 30 16:46:47 2021
Timers Off: Fri Apr 30 16:46:55 2021

Wall Time:        7.66 seconds

                                                       Time (seconds)
Module                                       User      System        Wall        Calls

--------------------------------------------------------------------------------------

**************************************************************************************

Host: cfeld-pcx14803

Timers On : Fri Apr 30 16:49:25 2021
Timers Off: Fri Apr 30 16:49:31 2021

Wall Time:        6.24 seconds

                                                       Time (seconds)
Module                                       User      System        Wall        Calls

--------------------------------------------------------------------------------------

**************************************************************************************

Host: cfeld-pcx14803

Timers On : Fri Apr 30 16:52:09 2021
Timers Off: Fri Apr 30 16:52:15 2021

Wall Time:        6.70 seconds

                                                       Time (seconds)
Module                                       User      System        Wall        Calls

--------------------------------------------------------------------------------------

**************************************************************************************

Host: cfeld-pcx14803

Timers On : Fri Apr 30 16:55:55 2021
Timers Off: Fri Apr 30 16:56:02 2021

Wall Time:        6.55 seconds

                                                       Time (seconds)
Module                                       User      System        Wall        Calls

--------------------------------------------------------------------------------------

**************************************************************************************

Host: cfeld-pcx14803

Timers On : Fri Apr 30 16:59:20 2021
Timers Off: Fri Apr 30 16:59:31 2021

Wall Time:       10.53 seconds

                                                       Time (seconds)
Module                                       User      System        Wall        Calls

--------------------------------------------------------------------------------------

**************************************************************************************

Host: cfeld-pcx14803

Timers On : Fri Apr 30 17:00:43 2021
Timers Off: Fri Apr 30 17:00:48 2021

Wall Time:        4.68 seconds

                                                       Time (seconds)
Module                                       User      System        Wall        Calls

--------------------------------------------------------------------------------------

**************************************************************************************

Host: cfeld-pcx14803

Timers On : Fri Apr 30 17:04:31 2021
Timers Off: Fri Apr 30 17:04:41 2021

Wall Time:       10.38 seconds

                                                       Time (seconds)
Module                                       User      System        Wall        Calls

--------------------------------------------------------------------------------------

**************************************************************************************

Host: cfeld-pcx14803

Timers On : Fri Apr 30 17:06:02 2021
Timers Off: Fri Apr 30 17:06:12 2021

Wall Time:        9.87 seconds

                                                       Time (seconds)
Module                                       User      System        Wall        Calls

--------------------------------------------------------------------------------------

**************************************************************************************

Host: cfeld-pcx14803

Timers On : Fri Apr 30 17:09:43 2021
Timers Off: Fri Apr 30 17:10:23 2021

Wall Time:       39.95 seconds

                                                       Time (seconds)
Module                                       User      System        Wall        Calls

--------------------------------------------------------------------------------------

**************************************************************************************

Host: cfeld-pcx14803

Timers On : Fri Apr 30 17:18:30 2021
Timers Off: Fri Apr 30 17:20:32 2021

Wall Time:      122.12 seconds

                                                       Time (seconds)
Module                                       User      System        Wall        Calls

--------------------------------------------------------------------------------------

**************************************************************************************

Host: cfeld-pcx14803

Timers On : Fri Apr 30 17:21:21 2021
Timers Off: Fri Apr 30 17:22:00 2021

Wall Time:       38.67 seconds

                                                       Time (seconds)
Module                                       User      System        Wall        Calls

--------------------------------------------------------------------------------------

**************************************************************************************

Host: cfeld-pcx14803

Timers On : Fri Apr 30 17:32:51 2021
Timers Off: Fri Apr 30 17:34:11 2021

Wall Time:       80.02 seconds

                                                       Time (seconds)
Module                                       User      System        Wall        Calls

--------------------------------------------------------------------------------------

**************************************************************************************

Host: cfeld-pcx14803

Timers On : Fri Apr 30 18:05:44 2021
Timers Off: Fri Apr 30 18:05:56 2021

Wall Time:       12.36 seconds

                                                       Time (seconds)
Module                                       User      System        Wall        Calls

--------------------------------------------------------------------------------------

**************************************************************************************

Host: cfeld-pcx14803

Timers On : Fri Apr 30 18:06:31 2021
Timers Off: Fri Apr 30 18:06:41 2021

Wall Time:       10.37 seconds

                                                       Time (seconds)
Module                                       User      System        Wall        Calls

--------------------------------------------------------------------------------------

**************************************************************************************

Host: cfeld-pcx14803

Timers On : Fri Apr 30 18:07:34 2021
Timers Off: Fri Apr 30 18:07:43 2021

Wall Time:        8.77 seconds

                                                       Time (seconds)
Module                                       User      System        Wall        Calls

--------------------------------------------------------------------------------------

**************************************************************************************

Host: cfeld-pcx14803

Timers On : Fri Apr 30 18:09:11 2021
Timers Off: Fri Apr 30 18:09:21 2021

Wall Time:        9.88 seconds

                                                       Time (seconds)
Module                                       User      System        Wall        Calls

--------------------------------------------------------------------------------------

**************************************************************************************

Host: cfeld-pcx14803

Timers On : Fri Apr 30 18:09:34 2021
Timers Off: Fri Apr 30 18:09:43 2021

Wall Time:        8.94 seconds

                                                       Time (seconds)
Module                                       User      System        Wall        Calls

--------------------------------------------------------------------------------------

**************************************************************************************

Host: cfeld-pcx14803

Timers On : Fri Apr 30 18:10:16 2021
Timers Off: Fri Apr 30 18:10:25 2021

Wall Time:        8.46 seconds

                                                       Time (seconds)
Module                                       User      System        Wall        Calls

--------------------------------------------------------------------------------------

**************************************************************************************

Host: cfeld-pcx14803

Timers On : Fri Apr 30 18:10:55 2021
Timers Off: Fri Apr 30 18:11:03 2021

Wall Time:        7.84 seconds

                                                       Time (seconds)
Module                                       User      System        Wall        Calls

--------------------------------------------------------------------------------------

**************************************************************************************

Host: cfeld-pcx14803

Timers On : Fri Apr 30 18:11:44 2021
Timers Off: Fri Apr 30 18:11:52 2021

Wall Time:        7.89 seconds

                                                       Time (seconds)
Module                                       User      System        Wall        Calls

--------------------------------------------------------------------------------------

**************************************************************************************

Host: cfeld-pcx14803

Timers On : Sat May  1 11:19:48 2021
Timers Off: Sat May  1 11:21:34 2021

Wall Time:      105.96 seconds

                                                       Time (seconds)
Module                                       User      System        Wall        Calls

--------------------------------------------------------------------------------------

**************************************************************************************
