
Host: cfeld-pcx14803

Timers On : Tue Apr  6 19:39:01 2021
Timers Off: Tue Apr  6 19:39:04 2021

Wall Time:        2.71 seconds

                                                       Time (seconds)
Module                                       User      System        Wall        Calls

--------------------------------------------------------------------------------------

**************************************************************************************

Host: cfeld-pcx14803

Timers On : Tue Apr  6 19:39:33 2021
Timers Off: Tue Apr  6 19:39:36 2021

Wall Time:        2.29 seconds

                                                       Time (seconds)
Module                                       User      System        Wall        Calls

--------------------------------------------------------------------------------------

**************************************************************************************

Host: cfeld-pcx14803

Timers On : Tue Apr  6 19:43:33 2021
Timers Off: Tue Apr  6 19:43:35 2021

Wall Time:        2.47 seconds

                                                       Time (seconds)
Module                                       User      System        Wall        Calls

--------------------------------------------------------------------------------------

**************************************************************************************

Host: cfeld-pcx14803

Timers On : Tue Apr  6 19:43:42 2021
Timers Off: Tue Apr  6 19:43:44 2021

Wall Time:        1.63 seconds

                                                       Time (seconds)
Module                                       User      System        Wall        Calls

--------------------------------------------------------------------------------------

**************************************************************************************

Host: cfeld-pcx14803

Timers On : Wed Apr  7 08:18:53 2021
Timers Off: Wed Apr  7 08:18:54 2021

Wall Time:        0.60 seconds

                                                       Time (seconds)
Module                                       User      System        Wall        Calls

--------------------------------------------------------------------------------------

**************************************************************************************

Host: cfeld-pcx14803

Timers On : Wed Apr  7 09:22:07 2021
Timers Off: Wed Apr  7 09:22:09 2021

Wall Time:        1.18 seconds

                                                       Time (seconds)
Module                                       User      System        Wall        Calls

--------------------------------------------------------------------------------------

**************************************************************************************

Host: cfeld-pcx14803

Timers On : Wed Apr  7 09:22:31 2021
Timers Off: Wed Apr  7 09:22:33 2021

Wall Time:        1.24 seconds

                                                       Time (seconds)
Module                                       User      System        Wall        Calls

--------------------------------------------------------------------------------------

**************************************************************************************

Host: cfeld-pcx14803

Timers On : Wed Apr  7 09:22:50 2021
Timers Off: Wed Apr  7 09:22:51 2021

Wall Time:        1.24 seconds

                                                       Time (seconds)
Module                                       User      System        Wall        Calls

--------------------------------------------------------------------------------------

**************************************************************************************

Host: cfeld-pcx14803

Timers On : Wed Apr  7 09:24:48 2021
Timers Off: Wed Apr  7 09:24:50 2021

Wall Time:        1.71 seconds

                                                       Time (seconds)
Module                                       User      System        Wall        Calls

--------------------------------------------------------------------------------------

**************************************************************************************

Host: cfeld-pcx14803

Timers On : Wed Apr  7 09:25:28 2021
Timers Off: Wed Apr  7 09:25:30 2021

Wall Time:        1.43 seconds

                                                       Time (seconds)
Module                                       User      System        Wall        Calls

--------------------------------------------------------------------------------------

**************************************************************************************

Host: cfeld-pcx14803

Timers On : Wed Apr  7 09:26:18 2021
Timers Off: Wed Apr  7 09:26:19 2021

Wall Time:        1.49 seconds

                                                       Time (seconds)
Module                                       User      System        Wall        Calls

--------------------------------------------------------------------------------------

**************************************************************************************

Host: cfeld-pcx14803

Timers On : Wed Apr  7 09:26:55 2021
Timers Off: Wed Apr  7 09:26:57 2021

Wall Time:        1.36 seconds

                                                       Time (seconds)
Module                                       User      System        Wall        Calls

--------------------------------------------------------------------------------------

**************************************************************************************

Host: cfeld-pcx14803

Timers On : Wed Apr  7 09:27:16 2021
Timers Off: Wed Apr  7 09:27:17 2021

Wall Time:        1.42 seconds

                                                       Time (seconds)
Module                                       User      System        Wall        Calls

--------------------------------------------------------------------------------------

**************************************************************************************

Host: cfeld-pcx14803

Timers On : Wed Apr  7 09:27:59 2021
Timers Off: Wed Apr  7 09:28:00 2021

Wall Time:        1.40 seconds

                                                       Time (seconds)
Module                                       User      System        Wall        Calls

--------------------------------------------------------------------------------------

**************************************************************************************

Host: cfeld-pcx14803

Timers On : Wed Apr  7 09:28:31 2021
Timers Off: Wed Apr  7 09:28:34 2021

Wall Time:        3.07 seconds

                                                       Time (seconds)
Module                                       User      System        Wall        Calls

--------------------------------------------------------------------------------------

**************************************************************************************

Host: cfeld-pcx14803

Timers On : Wed Apr  7 09:28:54 2021
Timers Off: Wed Apr  7 09:29:01 2021

Wall Time:        6.96 seconds

                                                       Time (seconds)
Module                                       User      System        Wall        Calls

--------------------------------------------------------------------------------------

**************************************************************************************

Host: cfeld-pcx14803

Timers On : Wed Apr  7 09:30:06 2021
Timers Off: Wed Apr  7 09:30:08 2021

Wall Time:        1.90 seconds

                                                       Time (seconds)
Module                                       User      System        Wall        Calls

--------------------------------------------------------------------------------------

**************************************************************************************

Host: cfeld-pcx14803

Timers On : Wed Apr  7 09:30:31 2021
Timers Off: Wed Apr  7 09:30:46 2021

Wall Time:       14.20 seconds

                                                       Time (seconds)
Module                                       User      System        Wall        Calls

--------------------------------------------------------------------------------------

**************************************************************************************

Host: cfeld-pcx14803

Timers On : Wed Apr  7 09:31:30 2021
Timers Off: Wed Apr  7 09:31:38 2021

Wall Time:        7.41 seconds

                                                       Time (seconds)
Module                                       User      System        Wall        Calls

--------------------------------------------------------------------------------------

**************************************************************************************

Host: cfeld-pcx14803

Timers On : Wed Apr  7 09:32:08 2021
Timers Off: Wed Apr  7 09:32:16 2021

Wall Time:        7.87 seconds

                                                       Time (seconds)
Module                                       User      System        Wall        Calls

--------------------------------------------------------------------------------------

**************************************************************************************

Host: cfeld-pcx14803

Timers On : Wed Apr  7 09:32:36 2021
Timers Off: Wed Apr  7 09:32:41 2021

Wall Time:        5.76 seconds

                                                       Time (seconds)
Module                                       User      System        Wall        Calls

--------------------------------------------------------------------------------------

**************************************************************************************

Host: cfeld-pcx14803

Timers On : Wed Apr  7 09:32:51 2021
Timers Off: Wed Apr  7 09:33:04 2021

Wall Time:       13.44 seconds

                                                       Time (seconds)
Module                                       User      System        Wall        Calls

--------------------------------------------------------------------------------------

**************************************************************************************

Host: cfeld-pcx14803

Timers On : Wed Apr  7 09:34:00 2021
Timers Off: Wed Apr  7 09:34:06 2021

Wall Time:        6.04 seconds

                                                       Time (seconds)
Module                                       User      System        Wall        Calls

--------------------------------------------------------------------------------------

**************************************************************************************

Host: cfeld-pcx14803

Timers On : Wed Apr  7 09:36:08 2021
Timers Off: Wed Apr  7 09:36:16 2021

Wall Time:        7.27 seconds

                                                       Time (seconds)
Module                                       User      System        Wall        Calls

--------------------------------------------------------------------------------------

**************************************************************************************

Host: cfeld-pcx14803

Timers On : Wed Apr  7 09:36:57 2021
Timers Off: Wed Apr  7 09:37:02 2021

Wall Time:        5.63 seconds

                                                       Time (seconds)
Module                                       User      System        Wall        Calls

--------------------------------------------------------------------------------------

**************************************************************************************

Host: cfeld-pcx14803

Timers On : Wed Apr  7 09:37:09 2021
Timers Off: Wed Apr  7 09:37:14 2021

Wall Time:        5.15 seconds

                                                       Time (seconds)
Module                                       User      System        Wall        Calls

--------------------------------------------------------------------------------------

**************************************************************************************

Host: cfeld-pcx14803

Timers On : Wed Apr  7 09:37:40 2021
Timers Off: Wed Apr  7 09:37:49 2021

Wall Time:        8.58 seconds

                                                       Time (seconds)
Module                                       User      System        Wall        Calls

--------------------------------------------------------------------------------------

**************************************************************************************

Host: cfeld-pcx14803

Timers On : Wed Apr  7 09:38:02 2021
Timers Off: Wed Apr  7 09:38:07 2021

Wall Time:        5.08 seconds

                                                       Time (seconds)
Module                                       User      System        Wall        Calls

--------------------------------------------------------------------------------------

**************************************************************************************

Host: cfeld-pcx14803

Timers On : Wed Apr  7 09:38:16 2021
Timers Off: Wed Apr  7 09:38:17 2021

Wall Time:        1.65 seconds

                                                       Time (seconds)
Module                                       User      System        Wall        Calls

--------------------------------------------------------------------------------------

**************************************************************************************

Host: cfeld-pcx14803

Timers On : Wed Apr  7 09:38:28 2021
Timers Off: Wed Apr  7 09:38:30 2021

Wall Time:        1.64 seconds

                                                       Time (seconds)
Module                                       User      System        Wall        Calls

--------------------------------------------------------------------------------------

**************************************************************************************

Host: cfeld-pcx14803

Timers On : Wed Apr  7 09:38:39 2021
Timers Off: Wed Apr  7 09:38:45 2021

Wall Time:        5.57 seconds

                                                       Time (seconds)
Module                                       User      System        Wall        Calls

--------------------------------------------------------------------------------------

**************************************************************************************

Host: cfeld-pcx14803

Timers On : Wed Apr  7 09:39:41 2021
Timers Off: Wed Apr  7 09:39:45 2021

Wall Time:        4.21 seconds

                                                       Time (seconds)
Module                                       User      System        Wall        Calls

--------------------------------------------------------------------------------------

**************************************************************************************

Host: cfeld-pcx14803

Timers On : Wed Apr  7 09:39:51 2021
Timers Off: Wed Apr  7 09:40:01 2021

Wall Time:        9.78 seconds

                                                       Time (seconds)
Module                                       User      System        Wall        Calls

--------------------------------------------------------------------------------------

**************************************************************************************

Host: cfeld-pcx14803

Timers On : Wed Apr  7 09:40:15 2021
Timers Off: Wed Apr  7 09:40:24 2021

Wall Time:        9.06 seconds

                                                       Time (seconds)
Module                                       User      System        Wall        Calls

--------------------------------------------------------------------------------------

**************************************************************************************

Host: cfeld-pcx14803

Timers On : Wed Apr  7 09:41:02 2021
Timers Off: Wed Apr  7 09:41:09 2021

Wall Time:        6.50 seconds

                                                       Time (seconds)
Module                                       User      System        Wall        Calls

--------------------------------------------------------------------------------------

**************************************************************************************

Host: cfeld-pcx14803

Timers On : Wed Apr  7 09:41:18 2021
Timers Off: Wed Apr  7 09:41:24 2021

Wall Time:        6.18 seconds

                                                       Time (seconds)
Module                                       User      System        Wall        Calls

--------------------------------------------------------------------------------------

**************************************************************************************

Host: cfeld-pcx14803

Timers On : Wed Apr  7 09:44:15 2021
Timers Off: Wed Apr  7 09:44:27 2021

Wall Time:       12.58 seconds

                                                       Time (seconds)
Module                                       User      System        Wall        Calls

--------------------------------------------------------------------------------------

**************************************************************************************

Host: cfeld-pcx14803

Timers On : Wed Apr  7 09:45:12 2021
Timers Off: Wed Apr  7 09:45:14 2021

Wall Time:        1.56 seconds

                                                       Time (seconds)
Module                                       User      System        Wall        Calls

--------------------------------------------------------------------------------------

**************************************************************************************

Host: cfeld-pcx14803

Timers On : Wed Apr  7 09:48:55 2021
Timers Off: Wed Apr  7 09:49:27 2021

Wall Time:       32.60 seconds

                                                       Time (seconds)
Module                                       User      System        Wall        Calls

--------------------------------------------------------------------------------------

**************************************************************************************

Host: cfeld-pcx14803

Timers On : Wed Apr  7 09:49:35 2021
Timers Off: Wed Apr  7 09:50:02 2021

Wall Time:       27.04 seconds

                                                       Time (seconds)
Module                                       User      System        Wall        Calls

--------------------------------------------------------------------------------------

**************************************************************************************

Host: cfeld-pcx14803

Timers On : Wed Apr  7 09:50:10 2021
Timers Off: Wed Apr  7 09:50:35 2021

Wall Time:       24.95 seconds

                                                       Time (seconds)
Module                                       User      System        Wall        Calls

--------------------------------------------------------------------------------------

**************************************************************************************

Host: cfeld-pcx14803

Timers On : Wed Apr  7 09:50:50 2021
Timers Off: Wed Apr  7 09:51:13 2021

Wall Time:       22.73 seconds

                                                       Time (seconds)
Module                                       User      System        Wall        Calls

--------------------------------------------------------------------------------------

**************************************************************************************

Host: cfeld-pcx14803

Timers On : Wed Apr  7 10:08:14 2021
Timers Off: Wed Apr  7 10:08:16 2021

Wall Time:        1.82 seconds

                                                       Time (seconds)
Module                                       User      System        Wall        Calls

--------------------------------------------------------------------------------------

**************************************************************************************

Host: cfeld-pcx14803

Timers On : Wed Apr  7 10:08:37 2021
Timers Off: Wed Apr  7 10:08:39 2021

Wall Time:        1.30 seconds

                                                       Time (seconds)
Module                                       User      System        Wall        Calls

--------------------------------------------------------------------------------------

**************************************************************************************

Host: cfeld-pcx14803

Timers On : Wed Apr  7 10:10:19 2021
Timers Off: Wed Apr  7 10:10:21 2021

Wall Time:        1.99 seconds

                                                       Time (seconds)
Module                                       User      System        Wall        Calls

--------------------------------------------------------------------------------------

**************************************************************************************

Host: cfeld-pcx14803

Timers On : Wed Apr  7 10:10:58 2021
Timers Off: Wed Apr  7 10:11:00 2021

Wall Time:        2.01 seconds

                                                       Time (seconds)
Module                                       User      System        Wall        Calls

--------------------------------------------------------------------------------------

**************************************************************************************

Host: cfeld-pcx14803

Timers On : Wed Apr  7 10:11:18 2021
Timers Off: Wed Apr  7 10:11:20 2021

Wall Time:        1.90 seconds

                                                       Time (seconds)
Module                                       User      System        Wall        Calls

--------------------------------------------------------------------------------------

**************************************************************************************

Host: cfeld-pcx14803

Timers On : Wed Apr  7 10:14:04 2021
Timers Off: Wed Apr  7 10:14:06 2021

Wall Time:        1.99 seconds

                                                       Time (seconds)
Module                                       User      System        Wall        Calls

--------------------------------------------------------------------------------------

**************************************************************************************

Host: cfeld-pcx14803

Timers On : Wed Apr  7 10:19:44 2021
Timers Off: Wed Apr  7 10:20:25 2021

Wall Time:       41.00 seconds

                                                       Time (seconds)
Module                                       User      System        Wall        Calls

--------------------------------------------------------------------------------------

**************************************************************************************

Host: cfeld-pcx14803

Timers On : Wed Apr  7 10:20:43 2021
Timers Off: Wed Apr  7 10:21:41 2021

Wall Time:       58.08 seconds

                                                       Time (seconds)
Module                                       User      System        Wall        Calls

--------------------------------------------------------------------------------------

**************************************************************************************

Host: cfeld-pcx14803

Timers On : Wed Apr  7 10:22:18 2021
Timers Off: Wed Apr  7 10:23:00 2021

Wall Time:       42.00 seconds

                                                       Time (seconds)
Module                                       User      System        Wall        Calls

--------------------------------------------------------------------------------------

**************************************************************************************

Host: cfeld-pcx14803

Timers On : Wed Apr  7 10:23:10 2021
Timers Off: Wed Apr  7 10:24:37 2021

Wall Time:       87.05 seconds

                                                       Time (seconds)
Module                                       User      System        Wall        Calls

--------------------------------------------------------------------------------------

**************************************************************************************

Host: cfeld-pcx14803

Timers On : Wed Apr  7 10:24:49 2021
Timers Off: Wed Apr  7 10:32:03 2021

Wall Time:      433.74 seconds

                                                       Time (seconds)
Module                                       User      System        Wall        Calls

--------------------------------------------------------------------------------------

**************************************************************************************

Host: cfeld-pcx14803

Timers On : Wed Apr  7 10:32:17 2021
Timers Off: Wed Apr  7 10:34:20 2021

Wall Time:      122.22 seconds

                                                       Time (seconds)
Module                                       User      System        Wall        Calls

--------------------------------------------------------------------------------------

**************************************************************************************

Host: cfeld-pcx14803

Timers On : Wed Apr  7 10:36:05 2021
Timers Off: Wed Apr  7 10:43:31 2021

Wall Time:      445.35 seconds

                                                       Time (seconds)
Module                                       User      System        Wall        Calls

--------------------------------------------------------------------------------------

**************************************************************************************

Host: cfeld-pcx14803

Timers On : Wed Apr  7 10:43:39 2021
Timers Off: Wed Apr  7 10:43:42 2021

Wall Time:        2.22 seconds

                                                       Time (seconds)
Module                                       User      System        Wall        Calls

--------------------------------------------------------------------------------------

**************************************************************************************

Host: cfeld-pcx14803

Timers On : Wed Apr  7 10:44:30 2021
Timers Off: Wed Apr  7 10:44:33 2021

Wall Time:        2.13 seconds

                                                       Time (seconds)
Module                                       User      System        Wall        Calls

--------------------------------------------------------------------------------------

**************************************************************************************

Host: cfeld-pcx14803

Timers On : Wed Apr  7 10:44:47 2021
Timers Off: Wed Apr  7 10:44:49 2021

Wall Time:        1.96 seconds

                                                       Time (seconds)
Module                                       User      System        Wall        Calls

--------------------------------------------------------------------------------------

**************************************************************************************

Host: cfeld-pcx14803

Timers On : Wed Apr  7 10:45:26 2021
Timers Off: Wed Apr  7 10:45:29 2021

Wall Time:        2.41 seconds

                                                       Time (seconds)
Module                                       User      System        Wall        Calls

--------------------------------------------------------------------------------------

**************************************************************************************

Host: cfeld-pcx14803

Timers On : Wed Apr  7 10:45:41 2021
Timers Off: Wed Apr  7 10:46:14 2021

Wall Time:       32.52 seconds

                                                       Time (seconds)
Module                                       User      System        Wall        Calls

--------------------------------------------------------------------------------------

**************************************************************************************

Host: cfeld-pcx14803

Timers On : Wed Apr  7 10:46:59 2021
Timers Off: Wed Apr  7 10:47:27 2021

Wall Time:       27.98 seconds

                                                       Time (seconds)
Module                                       User      System        Wall        Calls

--------------------------------------------------------------------------------------

**************************************************************************************

Host: cfeld-pcx14803

Timers On : Wed Apr  7 10:48:17 2021
Timers Off: Wed Apr  7 10:48:23 2021

Wall Time:        6.64 seconds

                                                       Time (seconds)
Module                                       User      System        Wall        Calls

--------------------------------------------------------------------------------------

**************************************************************************************

Host: cfeld-pcx14803

Timers On : Wed Apr  7 10:48:59 2021
Timers Off: Wed Apr  7 10:49:06 2021

Wall Time:        6.68 seconds

                                                       Time (seconds)
Module                                       User      System        Wall        Calls

--------------------------------------------------------------------------------------

**************************************************************************************

Host: cfeld-pcx14803

Timers On : Wed Apr  7 10:49:15 2021
Timers Off: Wed Apr  7 10:49:21 2021

Wall Time:        6.55 seconds

                                                       Time (seconds)
Module                                       User      System        Wall        Calls

--------------------------------------------------------------------------------------

**************************************************************************************

Host: cfeld-pcx14803

Timers On : Wed Apr  7 10:49:30 2021
Timers Off: Wed Apr  7 10:49:36 2021

Wall Time:        6.58 seconds

                                                       Time (seconds)
Module                                       User      System        Wall        Calls

--------------------------------------------------------------------------------------

**************************************************************************************

Host: cfeld-pcx14803

Timers On : Wed Apr  7 10:50:00 2021
Timers Off: Wed Apr  7 10:50:41 2021

Wall Time:       41.68 seconds

                                                       Time (seconds)
Module                                       User      System        Wall        Calls

--------------------------------------------------------------------------------------

**************************************************************************************

Host: cfeld-pcx14803

Timers On : Wed Apr  7 10:51:26 2021
Timers Off: Wed Apr  7 10:52:35 2021

Wall Time:       69.13 seconds

                                                       Time (seconds)
Module                                       User      System        Wall        Calls

--------------------------------------------------------------------------------------

**************************************************************************************

Host: cfeld-pcx14803

Timers On : Wed Apr  7 10:53:37 2021
Timers Off: Wed Apr  7 10:54:56 2021

Wall Time:       79.21 seconds

                                                       Time (seconds)
Module                                       User      System        Wall        Calls

--------------------------------------------------------------------------------------

**************************************************************************************

Host: cfeld-pcx14803

Timers On : Wed Apr  7 10:55:03 2021
Timers Off: Wed Apr  7 10:55:05 2021

Wall Time:        2.44 seconds

                                                       Time (seconds)
Module                                       User      System        Wall        Calls

--------------------------------------------------------------------------------------

**************************************************************************************

Host: cfeld-pcx14803

Timers On : Wed Apr  7 10:55:21 2021
Timers Off: Wed Apr  7 10:56:16 2021

Wall Time:       54.93 seconds

                                                       Time (seconds)
Module                                       User      System        Wall        Calls

--------------------------------------------------------------------------------------

**************************************************************************************

Host: cfeld-pcx14803

Timers On : Wed Apr  7 10:56:24 2021
Timers Off: Wed Apr  7 10:57:19 2021

Wall Time:       55.04 seconds

                                                       Time (seconds)
Module                                       User      System        Wall        Calls

--------------------------------------------------------------------------------------

**************************************************************************************

Host: cfeld-pcx14803

Timers On : Wed Apr  7 10:57:59 2021
Timers Off: Wed Apr  7 10:58:49 2021

Wall Time:       49.99 seconds

                                                       Time (seconds)
Module                                       User      System        Wall        Calls

--------------------------------------------------------------------------------------

**************************************************************************************

Host: cfeld-pcx14803

Timers On : Wed Apr  7 11:27:26 2021
Timers Off: Wed Apr  7 11:27:28 2021

Wall Time:        2.34 seconds

                                                       Time (seconds)
Module                                       User      System        Wall        Calls

--------------------------------------------------------------------------------------

**************************************************************************************

Host: cfeld-pcx14803

Timers On : Wed Apr  7 11:27:47 2021
Timers Off: Wed Apr  7 11:27:48 2021

Wall Time:        1.95 seconds

                                                       Time (seconds)
Module                                       User      System        Wall        Calls

--------------------------------------------------------------------------------------

**************************************************************************************

Host: cfeld-pcx14803

Timers On : Wed Apr  7 11:29:20 2021
Timers Off: Wed Apr  7 11:29:32 2021

Wall Time:       12.00 seconds

                                                       Time (seconds)
Module                                       User      System        Wall        Calls

--------------------------------------------------------------------------------------

**************************************************************************************

Host: cfeld-pcx14803

Timers On : Wed Apr  7 11:29:42 2021
Timers Off: Wed Apr  7 11:30:00 2021

Wall Time:       17.61 seconds

                                                       Time (seconds)
Module                                       User      System        Wall        Calls

--------------------------------------------------------------------------------------

**************************************************************************************

Host: cfeld-pcx14803

Timers On : Wed Apr  7 11:34:48 2021
Timers Off: Wed Apr  7 11:35:18 2021

Wall Time:       30.02 seconds

                                                       Time (seconds)
Module                                       User      System        Wall        Calls

--------------------------------------------------------------------------------------

**************************************************************************************

Host: cfeld-pcx14803

Timers On : Wed Apr  7 11:38:50 2021
Timers Off: Wed Apr  7 11:38:54 2021

Wall Time:        3.37 seconds

                                                       Time (seconds)
Module                                       User      System        Wall        Calls

--------------------------------------------------------------------------------------

**************************************************************************************

Host: cfeld-pcx14803

Timers On : Wed Apr  7 11:43:15 2021
Timers Off: Wed Apr  7 11:43:18 2021

Wall Time:        2.45 seconds

                                                       Time (seconds)
Module                                       User      System        Wall        Calls

--------------------------------------------------------------------------------------

**************************************************************************************

Host: cfeld-pcx14803

Timers On : Wed Apr  7 12:43:38 2021
Timers Off: Wed Apr  7 12:43:40 2021

Wall Time:        2.47 seconds

                                                       Time (seconds)
Module                                       User      System        Wall        Calls

--------------------------------------------------------------------------------------

**************************************************************************************

Host: cfeld-pcx14803

Timers On : Wed Apr  7 12:43:49 2021
Timers Off: Wed Apr  7 12:43:51 2021

Wall Time:        2.40 seconds

                                                       Time (seconds)
Module                                       User      System        Wall        Calls

--------------------------------------------------------------------------------------

**************************************************************************************

Host: cfeld-pcx14803

Timers On : Wed Apr  7 12:46:07 2021
Timers Off: Wed Apr  7 12:46:12 2021

Wall Time:        5.17 seconds

                                                       Time (seconds)
Module                                       User      System        Wall        Calls

--------------------------------------------------------------------------------------

**************************************************************************************

Host: cfeld-pcx14803

Timers On : Wed Apr  7 12:46:50 2021
Timers Off: Wed Apr  7 12:46:57 2021

Wall Time:        6.70 seconds

                                                       Time (seconds)
Module                                       User      System        Wall        Calls

--------------------------------------------------------------------------------------

**************************************************************************************

Host: cfeld-pcx14803

Timers On : Wed Apr  7 12:47:06 2021
Timers Off: Wed Apr  7 12:47:20 2021

Wall Time:       13.47 seconds

                                                       Time (seconds)
Module                                       User      System        Wall        Calls

--------------------------------------------------------------------------------------

**************************************************************************************

Host: cfeld-pcx14803

Timers On : Wed Apr  7 12:47:38 2021
Timers Off: Wed Apr  7 12:47:49 2021

Wall Time:       10.38 seconds

                                                       Time (seconds)
Module                                       User      System        Wall        Calls

--------------------------------------------------------------------------------------

**************************************************************************************

Host: cfeld-pcx14803

Timers On : Wed Apr  7 12:48:00 2021
Timers Off: Wed Apr  7 12:48:09 2021

Wall Time:        8.88 seconds

                                                       Time (seconds)
Module                                       User      System        Wall        Calls

--------------------------------------------------------------------------------------

**************************************************************************************

Host: cfeld-pcx14803

Timers On : Wed Apr  7 13:37:59 2021
Timers Off: Wed Apr  7 13:38:02 2021

Wall Time:        2.56 seconds

                                                       Time (seconds)
Module                                       User      System        Wall        Calls

--------------------------------------------------------------------------------------

**************************************************************************************

Host: cfeld-pcx14803

Timers On : Wed Apr  7 13:38:26 2021
Timers Off: Wed Apr  7 13:38:28 2021

Wall Time:        2.37 seconds

                                                       Time (seconds)
Module                                       User      System        Wall        Calls

--------------------------------------------------------------------------------------

**************************************************************************************

Host: cfeld-pcx14803

Timers On : Wed Apr  7 13:39:40 2021
Timers Off: Wed Apr  7 13:39:43 2021

Wall Time:        2.36 seconds

                                                       Time (seconds)
Module                                       User      System        Wall        Calls

--------------------------------------------------------------------------------------

**************************************************************************************

Host: cfeld-pcx14803

Timers On : Wed Apr  7 13:40:17 2021
Timers Off: Wed Apr  7 13:40:19 2021

Wall Time:        2.10 seconds

                                                       Time (seconds)
Module                                       User      System        Wall        Calls

--------------------------------------------------------------------------------------

**************************************************************************************

Host: cfeld-pcx14803

Timers On : Wed Apr  7 13:54:56 2021
Timers Off: Wed Apr  7 13:54:59 2021

Wall Time:        2.24 seconds

                                                       Time (seconds)
Module                                       User      System        Wall        Calls

--------------------------------------------------------------------------------------

**************************************************************************************

Host: cfeld-pcx14803

Timers On : Wed Apr  7 13:56:54 2021
Timers Off: Wed Apr  7 13:56:56 2021

Wall Time:        1.95 seconds

                                                       Time (seconds)
Module                                       User      System        Wall        Calls

--------------------------------------------------------------------------------------

**************************************************************************************

Host: cfeld-pcx14803

Timers On : Wed Apr  7 14:24:13 2021
Timers Off: Wed Apr  7 14:24:15 2021

Wall Time:        2.10 seconds

                                                       Time (seconds)
Module                                       User      System        Wall        Calls

--------------------------------------------------------------------------------------

**************************************************************************************

Host: cfeld-pcx14803

Timers On : Wed Apr  7 14:24:23 2021
Timers Off: Wed Apr  7 14:24:25 2021

Wall Time:        1.25 seconds

                                                       Time (seconds)
Module                                       User      System        Wall        Calls

--------------------------------------------------------------------------------------

**************************************************************************************

Host: cfeld-pcx14803

Timers On : Wed Apr  7 14:25:06 2021
Timers Off: Wed Apr  7 14:25:08 2021

Wall Time:        1.81 seconds

                                                       Time (seconds)
Module                                       User      System        Wall        Calls

--------------------------------------------------------------------------------------

**************************************************************************************

Host: cfeld-pcx14803

Timers On : Wed Apr  7 14:26:28 2021
Timers Off: Wed Apr  7 14:26:30 2021

Wall Time:        1.92 seconds

                                                       Time (seconds)
Module                                       User      System        Wall        Calls

--------------------------------------------------------------------------------------

**************************************************************************************

Host: cfeld-pcx14803

Timers On : Wed Apr  7 14:27:07 2021
Timers Off: Wed Apr  7 14:27:29 2021

Wall Time:       22.89 seconds

                                                       Time (seconds)
Module                                       User      System        Wall        Calls

--------------------------------------------------------------------------------------

**************************************************************************************

Host: cfeld-pcx14803

Timers On : Wed Apr  7 14:27:43 2021
Timers Off: Wed Apr  7 14:27:45 2021

Wall Time:        1.88 seconds

                                                       Time (seconds)
Module                                       User      System        Wall        Calls

--------------------------------------------------------------------------------------

**************************************************************************************

Host: cfeld-pcx14803

Timers On : Wed Apr  7 14:27:58 2021
Timers Off: Wed Apr  7 14:29:07 2021

Wall Time:       69.13 seconds

                                                       Time (seconds)
Module                                       User      System        Wall        Calls

--------------------------------------------------------------------------------------

**************************************************************************************

Host: cfeld-pcx14803

Timers On : Wed Apr  7 14:29:45 2021
Timers Off: Wed Apr  7 14:30:18 2021

Wall Time:       33.10 seconds

                                                       Time (seconds)
Module                                       User      System        Wall        Calls

--------------------------------------------------------------------------------------

**************************************************************************************

Host: cfeld-pcx14803

Timers On : Wed Apr  7 14:30:27 2021
Timers Off: Wed Apr  7 14:30:29 2021

Wall Time:        1.88 seconds

                                                       Time (seconds)
Module                                       User      System        Wall        Calls

--------------------------------------------------------------------------------------

**************************************************************************************

Host: cfeld-pcx14803

Timers On : Wed Apr  7 14:31:03 2021
Timers Off: Wed Apr  7 14:31:05 2021

Wall Time:        1.64 seconds

                                                       Time (seconds)
Module                                       User      System        Wall        Calls

--------------------------------------------------------------------------------------

**************************************************************************************

Host: cfeld-pcx14803

Timers On : Wed Apr  7 14:32:26 2021
Timers Off: Wed Apr  7 14:32:28 2021

Wall Time:        2.20 seconds

                                                       Time (seconds)
Module                                       User      System        Wall        Calls

--------------------------------------------------------------------------------------

**************************************************************************************

Host: cfeld-pcx14803

Timers On : Wed Apr  7 14:32:36 2021
Timers Off: Wed Apr  7 14:32:38 2021

Wall Time:        1.73 seconds

                                                       Time (seconds)
Module                                       User      System        Wall        Calls

--------------------------------------------------------------------------------------

**************************************************************************************

Host: cfeld-pcx14803

Timers On : Wed Apr  7 14:54:53 2021
Timers Off: Wed Apr  7 14:54:55 2021

Wall Time:        2.16 seconds

                                                       Time (seconds)
Module                                       User      System        Wall        Calls

--------------------------------------------------------------------------------------

**************************************************************************************

Host: cfeld-pcx14803

Timers On : Wed Apr  7 14:56:44 2021
Timers Off: Wed Apr  7 14:56:46 2021

Wall Time:        2.11 seconds

                                                       Time (seconds)
Module                                       User      System        Wall        Calls

--------------------------------------------------------------------------------------

**************************************************************************************

Host: cfeld-pcx14803

Timers On : Wed Apr  7 14:57:49 2021
Timers Off: Wed Apr  7 14:58:00 2021

Wall Time:       10.84 seconds

                                                       Time (seconds)
Module                                       User      System        Wall        Calls

--------------------------------------------------------------------------------------

**************************************************************************************

Host: cfeld-pcx14803

Timers On : Wed Apr  7 14:58:38 2021
Timers Off: Wed Apr  7 15:00:23 2021

Wall Time:      105.62 seconds

                                                       Time (seconds)
Module                                       User      System        Wall        Calls

--------------------------------------------------------------------------------------

**************************************************************************************

Host: cfeld-pcx14803

Timers On : Wed Apr  7 15:00:31 2021
Timers Off: Wed Apr  7 15:00:33 2021

Wall Time:        2.15 seconds

                                                       Time (seconds)
Module                                       User      System        Wall        Calls

--------------------------------------------------------------------------------------

**************************************************************************************

Host: cfeld-pcx14803

Timers On : Wed Apr  7 15:00:50 2021
Timers Off: Wed Apr  7 15:01:10 2021

Wall Time:       19.82 seconds

                                                       Time (seconds)
Module                                       User      System        Wall        Calls

--------------------------------------------------------------------------------------

**************************************************************************************

Host: cfeld-pcx14803

Timers On : Wed Apr  7 15:01:32 2021
Timers Off: Wed Apr  7 15:01:50 2021

Wall Time:       18.29 seconds

                                                       Time (seconds)
Module                                       User      System        Wall        Calls

--------------------------------------------------------------------------------------

**************************************************************************************

Host: cfeld-pcx14803

Timers On : Wed Apr  7 15:02:41 2021
Timers Off: Wed Apr  7 15:03:00 2021

Wall Time:       18.69 seconds

                                                       Time (seconds)
Module                                       User      System        Wall        Calls

--------------------------------------------------------------------------------------

**************************************************************************************

Host: cfeld-pcx14803

Timers On : Wed Apr  7 15:03:12 2021
Timers Off: Wed Apr  7 15:03:30 2021

Wall Time:       18.17 seconds

                                                       Time (seconds)
Module                                       User      System        Wall        Calls

--------------------------------------------------------------------------------------

**************************************************************************************

Host: cfeld-pcx14803

Timers On : Wed Apr  7 15:04:08 2021
Timers Off: Wed Apr  7 15:04:25 2021

Wall Time:       17.30 seconds

                                                       Time (seconds)
Module                                       User      System        Wall        Calls

--------------------------------------------------------------------------------------

**************************************************************************************

Host: cfeld-pcx14803

Timers On : Wed Apr  7 15:04:58 2021
Timers Off: Wed Apr  7 15:05:00 2021

Wall Time:        1.84 seconds

                                                       Time (seconds)
Module                                       User      System        Wall        Calls

--------------------------------------------------------------------------------------

**************************************************************************************

Host: cfeld-pcx14803

Timers On : Wed Apr  7 15:05:18 2021
Timers Off: Wed Apr  7 15:05:20 2021

Wall Time:        1.66 seconds

                                                       Time (seconds)
Module                                       User      System        Wall        Calls

--------------------------------------------------------------------------------------

**************************************************************************************

Host: cfeld-pcx14803

Timers On : Wed Apr  7 15:05:29 2021
Timers Off: Wed Apr  7 15:05:38 2021

Wall Time:        8.76 seconds

                                                       Time (seconds)
Module                                       User      System        Wall        Calls

--------------------------------------------------------------------------------------

**************************************************************************************

Host: cfeld-pcx14803

Timers On : Wed Apr  7 15:05:49 2021
Timers Off: Wed Apr  7 15:06:01 2021

Wall Time:       11.79 seconds

                                                       Time (seconds)
Module                                       User      System        Wall        Calls

--------------------------------------------------------------------------------------

**************************************************************************************

Host: cfeld-pcx14803

Timers On : Wed Apr  7 15:06:14 2021
Timers Off: Wed Apr  7 15:08:00 2021

Wall Time:      106.40 seconds

                                                       Time (seconds)
Module                                       User      System        Wall        Calls

--------------------------------------------------------------------------------------

**************************************************************************************

Host: cfeld-pcx14803

Timers On : Wed Apr  7 15:08:09 2021
Timers Off: Wed Apr  7 15:09:26 2021

Wall Time:       76.45 seconds

                                                       Time (seconds)
Module                                       User      System        Wall        Calls

--------------------------------------------------------------------------------------

**************************************************************************************

Host: cfeld-pcx14803

Timers On : Wed Apr  7 15:40:24 2021
Timers Off: Wed Apr  7 15:40:27 2021

Wall Time:        2.96 seconds

                                                       Time (seconds)
Module                                       User      System        Wall        Calls

--------------------------------------------------------------------------------------

**************************************************************************************

Host: cfeld-pcx14803

Timers On : Wed Apr  7 15:40:53 2021
Timers Off: Wed Apr  7 15:40:56 2021

Wall Time:        2.52 seconds

                                                       Time (seconds)
Module                                       User      System        Wall        Calls

--------------------------------------------------------------------------------------

**************************************************************************************

Host: cfeld-pcx14803

Timers On : Wed Apr  7 15:42:07 2021
Timers Off: Wed Apr  7 15:42:25 2021

Wall Time:       18.10 seconds

                                                       Time (seconds)
Module                                       User      System        Wall        Calls

--------------------------------------------------------------------------------------

**************************************************************************************

Host: cfeld-pcx14803

Timers On : Wed Apr  7 16:03:12 2021
Timers Off: Wed Apr  7 16:03:15 2021

Wall Time:        2.95 seconds

                                                       Time (seconds)
Module                                       User      System        Wall        Calls

--------------------------------------------------------------------------------------

**************************************************************************************

Host: cfeld-pcx14803

Timers On : Wed Apr  7 16:03:45 2021
Timers Off: Wed Apr  7 16:03:48 2021

Wall Time:        2.58 seconds

                                                       Time (seconds)
Module                                       User      System        Wall        Calls

--------------------------------------------------------------------------------------

**************************************************************************************

Host: cfeld-pcx14803

Timers On : Wed Apr  7 16:04:10 2021
Timers Off: Wed Apr  7 16:04:32 2021

Wall Time:       22.28 seconds

                                                       Time (seconds)
Module                                       User      System        Wall        Calls

--------------------------------------------------------------------------------------

**************************************************************************************

Host: cfeld-pcx14803

Timers On : Wed Apr  7 16:06:07 2021
Timers Off: Wed Apr  7 16:06:38 2021

Wall Time:       30.41 seconds

                                                       Time (seconds)
Module                                       User      System        Wall        Calls

--------------------------------------------------------------------------------------

**************************************************************************************

Host: cfeld-pcx14803

Timers On : Wed Apr  7 16:06:43 2021
Timers Off: Wed Apr  7 16:06:48 2021

Wall Time:        4.69 seconds

                                                       Time (seconds)
Module                                       User      System        Wall        Calls

--------------------------------------------------------------------------------------

**************************************************************************************

Host: cfeld-pcx14803

Timers On : Wed Apr  7 16:06:59 2021
Timers Off: Wed Apr  7 16:07:16 2021

Wall Time:       16.67 seconds

                                                       Time (seconds)
Module                                       User      System        Wall        Calls

--------------------------------------------------------------------------------------

**************************************************************************************

Host: cfeld-pcx14803

Timers On : Wed Apr  7 16:07:34 2021
Timers Off: Wed Apr  7 16:08:11 2021

Wall Time:       37.25 seconds

                                                       Time (seconds)
Module                                       User      System        Wall        Calls

--------------------------------------------------------------------------------------

**************************************************************************************

Host: cfeld-pcx14803

Timers On : Wed Apr  7 16:08:57 2021
Timers Off: Wed Apr  7 16:10:35 2021

Wall Time:       97.58 seconds

                                                       Time (seconds)
Module                                       User      System        Wall        Calls

--------------------------------------------------------------------------------------

**************************************************************************************

Host: cfeld-pcx14803

Timers On : Wed Apr  7 16:10:41 2021
Timers Off: Wed Apr  7 16:11:00 2021

Wall Time:       18.81 seconds

                                                       Time (seconds)
Module                                       User      System        Wall        Calls

--------------------------------------------------------------------------------------

**************************************************************************************

Host: cfeld-pcx14803

Timers On : Wed Apr  7 16:11:21 2021
Timers Off: Wed Apr  7 16:12:27 2021

Wall Time:       66.28 seconds

                                                       Time (seconds)
Module                                       User      System        Wall        Calls

--------------------------------------------------------------------------------------

**************************************************************************************

Host: cfeld-pcx14803

Timers On : Wed Apr  7 16:14:01 2021
Timers Off: Wed Apr  7 16:14:39 2021

Wall Time:       37.95 seconds

                                                       Time (seconds)
Module                                       User      System        Wall        Calls

--------------------------------------------------------------------------------------

**************************************************************************************

Host: cfeld-pcx14803

Timers On : Wed Apr  7 16:14:52 2021
Timers Off: Wed Apr  7 16:14:54 2021

Wall Time:        2.42 seconds

                                                       Time (seconds)
Module                                       User      System        Wall        Calls

--------------------------------------------------------------------------------------

**************************************************************************************

Host: cfeld-pcx14803

Timers On : Wed Apr  7 16:15:17 2021
Timers Off: Wed Apr  7 16:15:20 2021

Wall Time:        2.60 seconds

                                                       Time (seconds)
Module                                       User      System        Wall        Calls

--------------------------------------------------------------------------------------

**************************************************************************************

Host: cfeld-pcx14803

Timers On : Wed Apr  7 16:15:34 2021
Timers Off: Wed Apr  7 16:17:52 2021

Wall Time:      138.41 seconds

                                                       Time (seconds)
Module                                       User      System        Wall        Calls

--------------------------------------------------------------------------------------

**************************************************************************************

Host: cfeld-pcx14803

Timers On : Wed Apr  7 16:23:44 2021
Timers Off: Wed Apr  7 16:25:10 2021

Wall Time:       85.68 seconds

                                                       Time (seconds)
Module                                       User      System        Wall        Calls

--------------------------------------------------------------------------------------

**************************************************************************************

Host: cfeld-pcx14803

Timers On : Wed Apr  7 16:25:33 2021
Timers Off: Wed Apr  7 16:25:43 2021

Wall Time:        9.87 seconds

                                                       Time (seconds)
Module                                       User      System        Wall        Calls

--------------------------------------------------------------------------------------

**************************************************************************************

Host: cfeld-pcx14803

Timers On : Wed Apr  7 16:26:03 2021
Timers Off: Wed Apr  7 16:26:13 2021

Wall Time:       10.10 seconds

                                                       Time (seconds)
Module                                       User      System        Wall        Calls

--------------------------------------------------------------------------------------

**************************************************************************************

Host: cfeld-pcx14803

Timers On : Wed Apr  7 16:26:24 2021
Timers Off: Wed Apr  7 19:02:39 2021

Wall Time:     9375.49 seconds

                                                       Time (seconds)
Module                                       User      System        Wall        Calls

--------------------------------------------------------------------------------------

**************************************************************************************

Host: cfeld-pcx14803

Timers On : Wed Apr  7 19:03:19 2021
Timers Off: Wed Apr  7 19:05:07 2021

Wall Time:      107.98 seconds

                                                       Time (seconds)
Module                                       User      System        Wall        Calls

--------------------------------------------------------------------------------------

**************************************************************************************

Host: cfeld-pcx14803

Timers On : Wed Apr  7 19:05:32 2021
Timers Off: Wed Apr  7 20:07:46 2021

Wall Time:     3734.46 seconds

                                                       Time (seconds)
Module                                       User      System        Wall        Calls

--------------------------------------------------------------------------------------

**************************************************************************************

Host: cfeld-pcx14803

Timers On : Wed Apr  7 20:07:53 2021
Timers Off: Wed Apr  7 20:07:55 2021

Wall Time:        2.02 seconds

                                                       Time (seconds)
Module                                       User      System        Wall        Calls

--------------------------------------------------------------------------------------

**************************************************************************************

Host: cfeld-pcx14803

Timers On : Wed Apr  7 20:08:17 2021
Timers Off: Wed Apr  7 20:08:38 2021

Wall Time:       21.48 seconds

                                                       Time (seconds)
Module                                       User      System        Wall        Calls

--------------------------------------------------------------------------------------

**************************************************************************************

Host: cfeld-pcx14803

Timers On : Wed Apr  7 20:09:02 2021
Timers Off: Wed Apr  7 20:11:57 2021

Wall Time:      174.39 seconds

                                                       Time (seconds)
Module                                       User      System        Wall        Calls

--------------------------------------------------------------------------------------

**************************************************************************************

Host: cfeld-pcx14803

Timers On : Wed Apr  7 20:15:55 2021
Timers Off: Wed Apr  7 20:15:57 2021

Wall Time:        2.01 seconds

                                                       Time (seconds)
Module                                       User      System        Wall        Calls

--------------------------------------------------------------------------------------

**************************************************************************************

Host: cfeld-pcx14803

Timers On : Wed Apr  7 20:16:46 2021
Timers Off: Wed Apr  7 20:26:00 2021

Wall Time:      553.24 seconds

                                                       Time (seconds)
Module                                       User      System        Wall        Calls

--------------------------------------------------------------------------------------

**************************************************************************************

Host: cfeld-pcx14803

Timers On : Wed Apr  7 20:26:19 2021
Timers Off: Wed Apr  7 20:40:20 2021

Wall Time:      840.91 seconds

                                                       Time (seconds)
Module                                       User      System        Wall        Calls

--------------------------------------------------------------------------------------

**************************************************************************************
