
Host: cfeld-pcx14803

Timers On : Mon Apr 12 15:16:37 2021
Timers Off: Mon Apr 12 15:16:38 2021

Wall Time:        1.52 seconds

                                                       Time (seconds)
Module                                       User      System        Wall        Calls

--------------------------------------------------------------------------------------

**************************************************************************************

Host: cfeld-pcx14803

Timers On : Mon Apr 12 15:17:19 2021
Timers Off: Mon Apr 12 15:17:20 2021

Wall Time:        1.00 seconds

                                                       Time (seconds)
Module                                       User      System        Wall        Calls

--------------------------------------------------------------------------------------

**************************************************************************************

Host: cfeld-pcx14803

Timers On : Mon Apr 12 15:18:13 2021
Timers Off: Mon Apr 12 15:18:15 2021

Wall Time:        1.62 seconds

                                                       Time (seconds)
Module                                       User      System        Wall        Calls

--------------------------------------------------------------------------------------

**************************************************************************************

Host: cfeld-pcx14803

Timers On : Mon Apr 12 17:06:18 2021
Timers Off: Mon Apr 12 17:06:24 2021

Wall Time:        5.53 seconds

                                                       Time (seconds)
Module                                       User      System        Wall        Calls

--------------------------------------------------------------------------------------

**************************************************************************************

Host: cfeld-pcx14803

Timers On : Mon Apr 12 17:06:35 2021
Timers Off: Mon Apr 12 17:06:38 2021

Wall Time:        3.31 seconds

                                                       Time (seconds)
Module                                       User      System        Wall        Calls

--------------------------------------------------------------------------------------

**************************************************************************************

Host: cfeld-pcx14803

Timers On : Mon Apr 12 17:06:48 2021
Timers Off: Mon Apr 12 17:06:52 2021

Wall Time:        3.45 seconds

                                                       Time (seconds)
Module                                       User      System        Wall        Calls

--------------------------------------------------------------------------------------

**************************************************************************************

Host: cfeld-pcx14803

Timers On : Mon Apr 12 17:07:13 2021
Timers Off: Mon Apr 12 17:07:15 2021

Wall Time:        1.47 seconds

                                                       Time (seconds)
Module                                       User      System        Wall        Calls

--------------------------------------------------------------------------------------

**************************************************************************************

Host: cfeld-pcx14803

Timers On : Mon Apr 12 17:07:31 2021
Timers Off: Mon Apr 12 17:09:41 2021

Wall Time:      130.29 seconds

                                                       Time (seconds)
Module                                       User      System        Wall        Calls

--------------------------------------------------------------------------------------

**************************************************************************************

Host: cfeld-pcx14803

Timers On : Tue Apr 13 09:02:10 2021
Timers Off: Tue Apr 13 09:05:39 2021

Wall Time:      208.75 seconds

                                                       Time (seconds)
Module                                       User      System        Wall        Calls

--------------------------------------------------------------------------------------

**************************************************************************************

Host: cfeld-pcx14803

Timers On : Tue Apr 13 09:05:58 2021
Timers Off: Tue Apr 13 09:10:33 2021

Wall Time:      274.21 seconds

                                                       Time (seconds)
Module                                       User      System        Wall        Calls

--------------------------------------------------------------------------------------

**************************************************************************************

Host: cfeld-pcx14803

Timers On : Tue Apr 13 10:01:16 2021
Timers Off: Tue Apr 13 10:01:19 2021

Wall Time:        2.44 seconds

                                                       Time (seconds)
Module                                       User      System        Wall        Calls

--------------------------------------------------------------------------------------

**************************************************************************************

Host: cfeld-pcx14803

Timers On : Tue Apr 13 10:01:47 2021
Timers Off: Tue Apr 13 10:06:14 2021

Wall Time:      267.04 seconds

                                                       Time (seconds)
Module                                       User      System        Wall        Calls

--------------------------------------------------------------------------------------

**************************************************************************************

Host: cfeld-pcx14803

Timers On : Tue Apr 13 10:27:02 2021
Timers Off: Tue Apr 13 10:28:45 2021

Wall Time:      103.43 seconds

                                                       Time (seconds)
Module                                       User      System        Wall        Calls

--------------------------------------------------------------------------------------

**************************************************************************************

Host: cfeld-pcx14803

Timers On : Tue Apr 13 10:29:17 2021
Timers Off: Tue Apr 13 10:29:28 2021

Wall Time:       11.21 seconds

                                                       Time (seconds)
Module                                       User      System        Wall        Calls

--------------------------------------------------------------------------------------

**************************************************************************************

Host: cfeld-pcx14803

Timers On : Tue Apr 13 10:30:36 2021
Timers Off: Tue Apr 13 10:30:38 2021

Wall Time:        2.16 seconds

                                                       Time (seconds)
Module                                       User      System        Wall        Calls

--------------------------------------------------------------------------------------

**************************************************************************************

Host: cfeld-pcx14803

Timers On : Tue Apr 13 10:30:45 2021
Timers Off: Tue Apr 13 10:30:47 2021

Wall Time:        2.13 seconds

                                                       Time (seconds)
Module                                       User      System        Wall        Calls

--------------------------------------------------------------------------------------

**************************************************************************************

Host: cfeld-pcx14803

Timers On : Tue Apr 13 10:31:13 2021
Timers Off: Tue Apr 13 10:31:41 2021

Wall Time:       27.23 seconds

                                                       Time (seconds)
Module                                       User      System        Wall        Calls

--------------------------------------------------------------------------------------

**************************************************************************************

Host: cfeld-pcx14803

Timers On : Tue Apr 13 10:33:46 2021
Timers Off: Tue Apr 13 10:33:49 2021

Wall Time:        2.22 seconds

                                                       Time (seconds)
Module                                       User      System        Wall        Calls

--------------------------------------------------------------------------------------

**************************************************************************************

Host: cfeld-pcx14803

Timers On : Tue Apr 13 10:33:55 2021
Timers Off: Tue Apr 13 10:37:26 2021

Wall Time:      210.33 seconds

                                                       Time (seconds)
Module                                       User      System        Wall        Calls

--------------------------------------------------------------------------------------

**************************************************************************************

Host: cfeld-pcx14803

Timers On : Tue Apr 13 10:50:12 2021
Timers Off: Tue Apr 13 10:50:15 2021

Wall Time:        2.82 seconds

                                                       Time (seconds)
Module                                       User      System        Wall        Calls

--------------------------------------------------------------------------------------

**************************************************************************************

Host: cfeld-pcx14803

Timers On : Tue Apr 13 10:50:26 2021
Timers Off: Tue Apr 13 10:50:31 2021

Wall Time:        4.44 seconds

                                                       Time (seconds)
Module                                       User      System        Wall        Calls

--------------------------------------------------------------------------------------

**************************************************************************************

Host: cfeld-pcx14803

Timers On : Tue Apr 13 11:00:12 2021
Timers Off: Tue Apr 13 11:00:42 2021

Wall Time:       30.02 seconds

                                                       Time (seconds)
Module                                       User      System        Wall        Calls

--------------------------------------------------------------------------------------

**************************************************************************************

Host: cfeld-pcx14803

Timers On : Tue Apr 13 11:02:41 2021
Timers Off: Tue Apr 13 11:02:46 2021

Wall Time:        4.50 seconds

                                                       Time (seconds)
Module                                       User      System        Wall        Calls

--------------------------------------------------------------------------------------

**************************************************************************************

Host: cfeld-pcx14803

Timers On : Tue Apr 13 11:04:18 2021
Timers Off: Tue Apr 13 11:04:23 2021

Wall Time:        4.57 seconds

                                                       Time (seconds)
Module                                       User      System        Wall        Calls

--------------------------------------------------------------------------------------

**************************************************************************************

Host: cfeld-pcx14803

Timers On : Tue Apr 13 11:12:16 2021
Timers Off: Tue Apr 13 11:12:22 2021

Wall Time:        5.32 seconds

                                                       Time (seconds)
Module                                       User      System        Wall        Calls

--------------------------------------------------------------------------------------

**************************************************************************************

Host: cfeld-pcx14803

Timers On : Tue Apr 13 11:14:17 2021
Timers Off: Tue Apr 13 11:14:19 2021

Wall Time:        1.54 seconds

                                                       Time (seconds)
Module                                       User      System        Wall        Calls

--------------------------------------------------------------------------------------

**************************************************************************************

Host: cfeld-pcx14803

Timers On : Tue Apr 13 11:27:27 2021
Timers Off: Tue Apr 13 11:27:29 2021

Wall Time:        2.53 seconds

                                                       Time (seconds)
Module                                       User      System        Wall        Calls

--------------------------------------------------------------------------------------

**************************************************************************************

Host: cfeld-pcx14803

Timers On : Tue Apr 13 11:28:37 2021
Timers Off: Tue Apr 13 11:28:39 2021

Wall Time:        1.49 seconds

                                                       Time (seconds)
Module                                       User      System        Wall        Calls

--------------------------------------------------------------------------------------

**************************************************************************************

Host: cfeld-pcx14803

Timers On : Tue Apr 13 11:43:32 2021
Timers Off: Tue Apr 13 11:43:57 2021

Wall Time:       25.03 seconds

                                                       Time (seconds)
Module                                       User      System        Wall        Calls

--------------------------------------------------------------------------------------

**************************************************************************************

Host: cfeld-pcx14803

Timers On : Tue Apr 13 11:49:15 2021
Timers Off: Tue Apr 13 11:49:17 2021

Wall Time:        2.47 seconds

                                                       Time (seconds)
Module                                       User      System        Wall        Calls

--------------------------------------------------------------------------------------

**************************************************************************************

Host: cfeld-pcx14803

Timers On : Tue Apr 13 11:50:57 2021
Timers Off: Tue Apr 13 11:51:00 2021

Wall Time:        2.08 seconds

                                                       Time (seconds)
Module                                       User      System        Wall        Calls

--------------------------------------------------------------------------------------

**************************************************************************************

Host: cfeld-pcx14803

Timers On : Tue Apr 13 11:55:09 2021
Timers Off: Tue Apr 13 11:55:16 2021

Wall Time:        6.63 seconds

                                                       Time (seconds)
Module                                       User      System        Wall        Calls

--------------------------------------------------------------------------------------

**************************************************************************************

Host: cfeld-pcx14803

Timers On : Tue Apr 13 12:34:51 2021
Timers Off: Tue Apr 13 12:34:54 2021

Wall Time:        2.52 seconds

                                                       Time (seconds)
Module                                       User      System        Wall        Calls

--------------------------------------------------------------------------------------

**************************************************************************************

Host: cfeld-pcx14803

Timers On : Tue Apr 13 12:39:56 2021
Timers Off: Tue Apr 13 12:40:35 2021

Wall Time:       38.92 seconds

                                                       Time (seconds)
Module                                       User      System        Wall        Calls

--------------------------------------------------------------------------------------

**************************************************************************************

Host: cfeld-pcx14803

Timers On : Tue Apr 13 12:41:35 2021
Timers Off: Tue Apr 13 12:41:37 2021

Wall Time:        1.25 seconds

                                                       Time (seconds)
Module                                       User      System        Wall        Calls

--------------------------------------------------------------------------------------

**************************************************************************************

Host: cfeld-pcx14803

Timers On : Tue Apr 13 12:41:52 2021
Timers Off: Tue Apr 13 12:42:52 2021

Wall Time:       60.06 seconds

                                                       Time (seconds)
Module                                       User      System        Wall        Calls

--------------------------------------------------------------------------------------

**************************************************************************************

Host: cfeld-pcx14803

Timers On : Tue Apr 13 12:43:23 2021
Timers Off: Tue Apr 13 12:43:58 2021

Wall Time:       35.06 seconds

                                                       Time (seconds)
Module                                       User      System        Wall        Calls

--------------------------------------------------------------------------------------

**************************************************************************************

Host: cfeld-pcx14803

Timers On : Tue Apr 13 12:44:48 2021
Timers Off: Tue Apr 13 13:14:44 2021

Wall Time:     1795.40 seconds

                                                       Time (seconds)
Module                                       User      System        Wall        Calls

--------------------------------------------------------------------------------------

**************************************************************************************

Host: cfeld-pcx14803

Timers On : Tue Apr 13 13:17:04 2021
Timers Off: Tue Apr 13 13:17:10 2021

Wall Time:        5.86 seconds

                                                       Time (seconds)
Module                                       User      System        Wall        Calls

--------------------------------------------------------------------------------------

**************************************************************************************

Host: cfeld-pcx14803

Timers On : Tue Apr 13 13:17:27 2021
Timers Off: Tue Apr 13 13:17:30 2021

Wall Time:        2.49 seconds

                                                       Time (seconds)
Module                                       User      System        Wall        Calls

--------------------------------------------------------------------------------------

**************************************************************************************

Host: cfeld-pcx14803

Timers On : Tue Apr 13 13:17:45 2021
Timers Off: Tue Apr 13 13:17:47 2021

Wall Time:        1.91 seconds

                                                       Time (seconds)
Module                                       User      System        Wall        Calls

--------------------------------------------------------------------------------------

**************************************************************************************

Host: cfeld-pcx14803

Timers On : Tue Apr 13 13:29:12 2021
Timers Off: Tue Apr 13 13:29:25 2021

Wall Time:       13.15 seconds

                                                       Time (seconds)
Module                                       User      System        Wall        Calls

--------------------------------------------------------------------------------------

**************************************************************************************

Host: cfeld-pcx14803

Timers On : Tue Apr 13 13:29:37 2021
Timers Off: Tue Apr 13 13:31:21 2021

Wall Time:      103.73 seconds

                                                       Time (seconds)
Module                                       User      System        Wall        Calls

--------------------------------------------------------------------------------------

**************************************************************************************

Host: cfeld-pcx14803

Timers On : Tue Apr 13 13:31:31 2021
Timers Off: Tue Apr 13 13:32:34 2021

Wall Time:       63.33 seconds

                                                       Time (seconds)
Module                                       User      System        Wall        Calls

--------------------------------------------------------------------------------------

**************************************************************************************

Host: cfeld-pcx14803

Timers On : Tue Apr 13 14:00:49 2021
Timers Off: Tue Apr 13 14:00:52 2021

Wall Time:        2.62 seconds

                                                       Time (seconds)
Module                                       User      System        Wall        Calls

--------------------------------------------------------------------------------------

**************************************************************************************

Host: cfeld-pcx14803

Timers On : Tue Apr 13 14:02:07 2021
Timers Off: Tue Apr 13 14:02:09 2021

Wall Time:        1.61 seconds

                                                       Time (seconds)
Module                                       User      System        Wall        Calls

--------------------------------------------------------------------------------------

**************************************************************************************

Host: cfeld-pcx14803

Timers On : Tue Apr 13 14:02:28 2021
Timers Off: Tue Apr 13 14:02:32 2021

Wall Time:        4.40 seconds

                                                       Time (seconds)
Module                                       User      System        Wall        Calls

--------------------------------------------------------------------------------------

**************************************************************************************

Host: cfeld-pcx14803

Timers On : Tue Apr 13 14:04:07 2021
Timers Off: Tue Apr 13 14:04:11 2021

Wall Time:        3.99 seconds

                                                       Time (seconds)
Module                                       User      System        Wall        Calls

--------------------------------------------------------------------------------------

**************************************************************************************

Host: cfeld-pcx14803

Timers On : Tue Apr 13 14:06:07 2021
Timers Off: Tue Apr 13 14:06:11 2021

Wall Time:        3.76 seconds

                                                       Time (seconds)
Module                                       User      System        Wall        Calls

--------------------------------------------------------------------------------------

**************************************************************************************

Host: cfeld-pcx14803

Timers On : Tue Apr 13 14:37:11 2021
Timers Off: Tue Apr 13 14:37:16 2021

Wall Time:        5.07 seconds

                                                       Time (seconds)
Module                                       User      System        Wall        Calls

--------------------------------------------------------------------------------------

**************************************************************************************

Host: cfeld-pcx14803

Timers On : Tue Apr 13 14:44:17 2021
Timers Off: Tue Apr 13 14:44:19 2021

Wall Time:        1.44 seconds

                                                       Time (seconds)
Module                                       User      System        Wall        Calls

--------------------------------------------------------------------------------------

**************************************************************************************

Host: cfeld-pcx14803

Timers On : Tue Apr 13 14:44:26 2021
Timers Off: Tue Apr 13 14:44:27 2021

Wall Time:        1.55 seconds

                                                       Time (seconds)
Module                                       User      System        Wall        Calls

--------------------------------------------------------------------------------------

**************************************************************************************

Host: cfeld-pcx14803

Timers On : Tue Apr 13 14:44:35 2021
Timers Off: Tue Apr 13 14:44:37 2021

Wall Time:        2.05 seconds

                                                       Time (seconds)
Module                                       User      System        Wall        Calls

--------------------------------------------------------------------------------------

**************************************************************************************

Host: cfeld-pcx14803

Timers On : Tue Apr 13 14:46:52 2021
Timers Off: Tue Apr 13 14:46:55 2021

Wall Time:        2.07 seconds

                                                       Time (seconds)
Module                                       User      System        Wall        Calls

--------------------------------------------------------------------------------------

**************************************************************************************
