
Host: cfeld-pcx14803

Timers On : Wed Jun  9 09:10:14 2021
Timers Off: Wed Jun  9 09:10:21 2021

Wall Time:        7.36 seconds

                                                       Time (seconds)
Module                                       User      System        Wall        Calls

--------------------------------------------------------------------------------------

**************************************************************************************

Host: cfeld-pcx14803

Timers On : Wed Jun  9 10:31:02 2021
Timers Off: Wed Jun  9 10:31:03 2021

Wall Time:        1.09 seconds

                                                       Time (seconds)
Module                                       User      System        Wall        Calls

--------------------------------------------------------------------------------------

**************************************************************************************

Host: cfeld-pcx14803

Timers On : Wed Jun  9 10:40:27 2021
Timers Off: Wed Jun  9 10:40:34 2021

Wall Time:        7.06 seconds

                                                       Time (seconds)
Module                                       User      System        Wall        Calls

--------------------------------------------------------------------------------------

**************************************************************************************

Host: cfeld-pcx14803

Timers On : Wed Jun  9 15:26:15 2021
Timers Off: Wed Jun  9 15:26:17 2021

Wall Time:        2.65 seconds

                                                       Time (seconds)
Module                                       User      System        Wall        Calls

--------------------------------------------------------------------------------------

**************************************************************************************

Host: cfeld-pcx14803

Timers On : Wed Jun  9 15:30:03 2021
Timers Off: Wed Jun  9 15:30:05 2021

Wall Time:        2.38 seconds

                                                       Time (seconds)
Module                                       User      System        Wall        Calls

--------------------------------------------------------------------------------------

**************************************************************************************

Host: cfeld-pcx14803

Timers On : Wed Jun  9 15:31:10 2021
Timers Off: Wed Jun  9 15:31:13 2021

Wall Time:        2.26 seconds

                                                       Time (seconds)
Module                                       User      System        Wall        Calls

--------------------------------------------------------------------------------------

**************************************************************************************

Host: cfeld-pcx14803

Timers On : Wed Jun  9 15:31:32 2021
Timers Off: Wed Jun  9 15:31:34 2021

Wall Time:        2.08 seconds

                                                       Time (seconds)
Module                                       User      System        Wall        Calls

--------------------------------------------------------------------------------------

**************************************************************************************

Host: cfeld-pcx14803

Timers On : Wed Jun  9 15:32:21 2021
Timers Off: Wed Jun  9 15:32:23 2021

Wall Time:        1.78 seconds

                                                       Time (seconds)
Module                                       User      System        Wall        Calls

--------------------------------------------------------------------------------------

**************************************************************************************

Host: cfeld-pcx14803

Timers On : Wed Jun  9 15:32:40 2021
Timers Off: Wed Jun  9 15:34:43 2021

Wall Time:      123.59 seconds

                                                       Time (seconds)
Module                                       User      System        Wall        Calls

--------------------------------------------------------------------------------------

**************************************************************************************

Host: cfeld-pcx14803

Timers On : Wed Jun  9 15:36:37 2021
Timers Off: Wed Jun  9 15:36:40 2021

Wall Time:        2.88 seconds

                                                       Time (seconds)
Module                                       User      System        Wall        Calls

--------------------------------------------------------------------------------------

**************************************************************************************

Host: cfeld-pcx14803

Timers On : Wed Jun  9 15:40:32 2021
Timers Off: Wed Jun  9 15:40:34 2021

Wall Time:        2.16 seconds

                                                       Time (seconds)
Module                                       User      System        Wall        Calls

--------------------------------------------------------------------------------------

**************************************************************************************

Host: cfeld-pcx14803

Timers On : Wed Jun  9 15:41:05 2021
Timers Off: Wed Jun  9 15:41:07 2021

Wall Time:        2.35 seconds

                                                       Time (seconds)
Module                                       User      System        Wall        Calls

--------------------------------------------------------------------------------------

**************************************************************************************

Host: cfeld-pcx14803

Timers On : Wed Jun  9 15:42:09 2021
Timers Off: Wed Jun  9 15:42:11 2021

Wall Time:        2.37 seconds

                                                       Time (seconds)
Module                                       User      System        Wall        Calls

--------------------------------------------------------------------------------------

**************************************************************************************

Host: cfeld-pcx14803

Timers On : Wed Jun  9 15:43:07 2021
Timers Off: Wed Jun  9 15:43:09 2021

Wall Time:        2.08 seconds

                                                       Time (seconds)
Module                                       User      System        Wall        Calls

--------------------------------------------------------------------------------------

**************************************************************************************

Host: cfeld-pcx14803

Timers On : Wed Jun  9 15:43:22 2021
Timers Off: Wed Jun  9 15:43:24 2021

Wall Time:        1.67 seconds

                                                       Time (seconds)
Module                                       User      System        Wall        Calls

--------------------------------------------------------------------------------------

**************************************************************************************

Host: cfeld-pcx14803

Timers On : Wed Jun  9 15:43:34 2021
Timers Off: Wed Jun  9 15:44:32 2021

Wall Time:       58.88 seconds

                                                       Time (seconds)
Module                                       User      System        Wall        Calls

--------------------------------------------------------------------------------------

**************************************************************************************

Host: cfeld-pcx14803

Timers On : Wed Jun  9 15:44:57 2021
Timers Off: Wed Jun  9 15:46:06 2021

Wall Time:       69.30 seconds

                                                       Time (seconds)
Module                                       User      System        Wall        Calls

--------------------------------------------------------------------------------------

**************************************************************************************

Host: cfeld-pcx14803

Timers On : Wed Jun  9 15:49:15 2021
Timers Off: Wed Jun  9 15:50:45 2021

Wall Time:       90.19 seconds

                                                       Time (seconds)
Module                                       User      System        Wall        Calls

--------------------------------------------------------------------------------------

**************************************************************************************

Host: cfeld-pcx14803

Timers On : Wed Jun  9 15:54:58 2021
Timers Off: Wed Jun  9 15:55:54 2021

Wall Time:       55.43 seconds

                                                       Time (seconds)
Module                                       User      System        Wall        Calls

--------------------------------------------------------------------------------------

**************************************************************************************

Host: cfeld-pcx14803

Timers On : Wed Jun  9 15:57:33 2021
Timers Off: Wed Jun  9 15:58:40 2021

Wall Time:       66.86 seconds

                                                       Time (seconds)
Module                                       User      System        Wall        Calls

--------------------------------------------------------------------------------------

**************************************************************************************

Host: cfeld-pcx14803

Timers On : Wed Jun  9 15:58:46 2021
Timers Off: Wed Jun  9 15:58:51 2021

Wall Time:        4.91 seconds

                                                       Time (seconds)
Module                                       User      System        Wall        Calls

--------------------------------------------------------------------------------------

**************************************************************************************

Host: cfeld-pcx14803

Timers On : Wed Jun  9 15:59:37 2021
Timers Off: Wed Jun  9 15:59:42 2021

Wall Time:        5.53 seconds

                                                       Time (seconds)
Module                                       User      System        Wall        Calls

--------------------------------------------------------------------------------------

**************************************************************************************

Host: cfeld-pcx14803

Timers On : Wed Jun  9 16:00:48 2021
Timers Off: Wed Jun  9 16:02:16 2021

Wall Time:       87.30 seconds

                                                       Time (seconds)
Module                                       User      System        Wall        Calls

--------------------------------------------------------------------------------------

**************************************************************************************

Host: cfeld-pcx14803

Timers On : Wed Jun  9 16:02:26 2021
Timers Off: Wed Jun  9 16:04:19 2021

Wall Time:      112.50 seconds

                                                       Time (seconds)
Module                                       User      System        Wall        Calls

--------------------------------------------------------------------------------------

**************************************************************************************

Host: cfeld-pcx14803

Timers On : Wed Jun  9 16:06:09 2021
Timers Off: Wed Jun  9 16:07:32 2021

Wall Time:       82.77 seconds

                                                       Time (seconds)
Module                                       User      System        Wall        Calls

--------------------------------------------------------------------------------------

**************************************************************************************

Host: cfeld-pcx14803

Timers On : Wed Jun  9 16:07:47 2021
Timers Off: Wed Jun  9 16:09:13 2021

Wall Time:       85.98 seconds

                                                       Time (seconds)
Module                                       User      System        Wall        Calls

--------------------------------------------------------------------------------------

**************************************************************************************

Host: cfeld-pcx14803

Timers On : Wed Jun  9 16:09:22 2021
Timers Off: Wed Jun  9 16:14:07 2021

Wall Time:      284.47 seconds

                                                       Time (seconds)
Module                                       User      System        Wall        Calls

--------------------------------------------------------------------------------------

**************************************************************************************

Host: cfeld-pcx14803

Timers On : Wed Jun  9 19:29:14 2021
Timers Off: Wed Jun  9 19:29:23 2021

Wall Time:        9.28 seconds

                                                       Time (seconds)
Module                                       User      System        Wall        Calls

--------------------------------------------------------------------------------------

**************************************************************************************

Host: cfeld-pcx14803

Timers On : Wed Jun  9 19:29:39 2021
Timers Off: Wed Jun  9 19:29:40 2021

Wall Time:        1.38 seconds

                                                       Time (seconds)
Module                                       User      System        Wall        Calls

--------------------------------------------------------------------------------------

**************************************************************************************

Host: cfeld-pcx14803

Timers On : Wed Jun  9 19:31:48 2021
Timers Off: Wed Jun  9 19:31:51 2021

Wall Time:        2.49 seconds

                                                       Time (seconds)
Module                                       User      System        Wall        Calls

--------------------------------------------------------------------------------------

**************************************************************************************

Host: cfeld-pcx14803

Timers On : Wed Jun  9 19:32:15 2021
Timers Off: Wed Jun  9 19:32:17 2021

Wall Time:        2.57 seconds

                                                       Time (seconds)
Module                                       User      System        Wall        Calls

--------------------------------------------------------------------------------------

**************************************************************************************

Host: cfeld-pcx14803

Timers On : Wed Jun  9 19:32:31 2021
Timers Off: Wed Jun  9 19:33:10 2021

Wall Time:       38.49 seconds

                                                       Time (seconds)
Module                                       User      System        Wall        Calls

--------------------------------------------------------------------------------------

**************************************************************************************

Host: cfeld-pcx14803

Timers On : Wed Jun  9 19:34:08 2021
Timers Off: Wed Jun  9 19:34:10 2021

Wall Time:        1.60 seconds

                                                       Time (seconds)
Module                                       User      System        Wall        Calls

--------------------------------------------------------------------------------------

**************************************************************************************

Host: cfeld-pcx14803

Timers On : Wed Jun  9 19:34:42 2021
Timers Off: Wed Jun  9 19:34:44 2021

Wall Time:        1.66 seconds

                                                       Time (seconds)
Module                                       User      System        Wall        Calls

--------------------------------------------------------------------------------------

**************************************************************************************

Host: cfeld-pcx14803

Timers On : Wed Jun  9 19:35:19 2021
Timers Off: Wed Jun  9 19:35:38 2021

Wall Time:       18.90 seconds

                                                       Time (seconds)
Module                                       User      System        Wall        Calls

--------------------------------------------------------------------------------------

**************************************************************************************

Host: cfeld-pcx14803

Timers On : Wed Jun  9 19:42:16 2021
Timers Off: Wed Jun  9 19:44:07 2021

Wall Time:      110.87 seconds

                                                       Time (seconds)
Module                                       User      System        Wall        Calls

--------------------------------------------------------------------------------------

**************************************************************************************

Host: cfeld-pcx14803

Timers On : Wed Jun  9 21:35:39 2021
Timers Off: Wed Jun  9 21:35:42 2021

Wall Time:        2.40 seconds

                                                       Time (seconds)
Module                                       User      System        Wall        Calls

--------------------------------------------------------------------------------------

**************************************************************************************

Host: cfeld-pcx14803

Timers On : Thu Jun 10 08:29:38 2021
Timers Off: Thu Jun 10 08:29:40 2021

Wall Time:        1.97 seconds

                                                       Time (seconds)
Module                                       User      System        Wall        Calls

--------------------------------------------------------------------------------------

**************************************************************************************

Host: cfeld-pcx14803

Timers On : Thu Jun 10 08:29:55 2021
Timers Off: Thu Jun 10 08:30:54 2021

Wall Time:       59.09 seconds

                                                       Time (seconds)
Module                                       User      System        Wall        Calls

--------------------------------------------------------------------------------------

**************************************************************************************

Host: cfeld-pcx14803

Timers On : Thu Jun 10 17:44:25 2021
Timers Off: Thu Jun 10 17:44:27 2021

Wall Time:        2.14 seconds

                                                       Time (seconds)
Module                                       User      System        Wall        Calls

--------------------------------------------------------------------------------------

**************************************************************************************

Host: cfeld-pcx14803

Timers On : Thu Jun 10 17:45:01 2021
Timers Off: Thu Jun 10 17:48:17 2021

Wall Time:      195.83 seconds

                                                       Time (seconds)
Module                                       User      System        Wall        Calls

--------------------------------------------------------------------------------------

**************************************************************************************

Host: cfeld-pcx14803

Timers On : Thu Jun 10 17:53:35 2021
Timers Off: Thu Jun 10 17:54:58 2021

Wall Time:       82.37 seconds

                                                       Time (seconds)
Module                                       User      System        Wall        Calls

--------------------------------------------------------------------------------------

**************************************************************************************

Host: cfeld-pcx14803

Timers On : Thu Jun 10 17:55:24 2021
Timers Off: Thu Jun 10 18:26:54 2021

Wall Time:     1890.06 seconds

                                                       Time (seconds)
Module                                       User      System        Wall        Calls

--------------------------------------------------------------------------------------

**************************************************************************************

Host: cfeld-pcx14803

Timers On : Thu Jun 10 18:27:10 2021
Timers Off: Thu Jun 10 18:27:13 2021

Wall Time:        3.44 seconds

                                                       Time (seconds)
Module                                       User      System        Wall        Calls

--------------------------------------------------------------------------------------

**************************************************************************************

Host: cfeld-pcx14803

Timers On : Thu Jun 10 18:27:27 2021
Timers Off: Thu Jun 10 18:28:00 2021

Wall Time:       33.18 seconds

                                                       Time (seconds)
Module                                       User      System        Wall        Calls

--------------------------------------------------------------------------------------

**************************************************************************************

Host: cfeld-pcx14803

Timers On : Fri Jun 11 07:45:47 2021
Timers Off: Fri Jun 11 07:46:41 2021

Wall Time:       54.42 seconds

                                                       Time (seconds)
Module                                       User      System        Wall        Calls

--------------------------------------------------------------------------------------

**************************************************************************************

Host: cfeld-pcx14803

Timers On : Fri Jun 11 07:46:59 2021
Timers Off: Fri Jun 11 07:47:02 2021

Wall Time:        2.86 seconds

                                                       Time (seconds)
Module                                       User      System        Wall        Calls

--------------------------------------------------------------------------------------

**************************************************************************************

Host: cfeld-pcx14803

Timers On : Fri Jun 11 07:47:17 2021
Timers Off: Fri Jun 11 07:47:20 2021

Wall Time:        2.79 seconds

                                                       Time (seconds)
Module                                       User      System        Wall        Calls

--------------------------------------------------------------------------------------

**************************************************************************************

Host: cfeld-pcx14803

Timers On : Fri Jun 11 07:47:47 2021
Timers Off: Fri Jun 11 07:47:50 2021

Wall Time:        3.67 seconds

                                                       Time (seconds)
Module                                       User      System        Wall        Calls

--------------------------------------------------------------------------------------

**************************************************************************************

Host: cfeld-pcx14803

Timers On : Fri Jun 11 07:51:16 2021
Timers Off: Fri Jun 11 07:52:59 2021

Wall Time:      102.90 seconds

                                                       Time (seconds)
Module                                       User      System        Wall        Calls

--------------------------------------------------------------------------------------

**************************************************************************************

Host: cfeld-pcx14803

Timers On : Mon Jun 14 16:14:24 2021
Timers Off: Mon Jun 14 16:14:32 2021

Wall Time:        7.76 seconds

                                                       Time (seconds)
Module                                       User      System        Wall        Calls

--------------------------------------------------------------------------------------

**************************************************************************************

Host: cfeld-pcx14803

Timers On : Mon Jun 14 16:17:04 2021
Timers Off: Mon Jun 14 16:17:10 2021

Wall Time:        6.48 seconds

                                                       Time (seconds)
Module                                       User      System        Wall        Calls

--------------------------------------------------------------------------------------

**************************************************************************************

Host: cfeld-pcx14803

Timers On : Mon Jun 14 16:17:41 2021
Timers Off: Mon Jun 14 16:17:47 2021

Wall Time:        6.35 seconds

                                                       Time (seconds)
Module                                       User      System        Wall        Calls

--------------------------------------------------------------------------------------

**************************************************************************************

Host: cfeld-pcx14803

Timers On : Mon Jun 14 16:17:57 2021
Timers Off: Mon Jun 14 16:18:03 2021

Wall Time:        5.56 seconds

                                                       Time (seconds)
Module                                       User      System        Wall        Calls

--------------------------------------------------------------------------------------

**************************************************************************************

Host: cfeld-pcx14803

Timers On : Mon Jun 14 16:18:15 2021
Timers Off: Mon Jun 14 16:18:21 2021

Wall Time:        6.29 seconds

                                                       Time (seconds)
Module                                       User      System        Wall        Calls

--------------------------------------------------------------------------------------

**************************************************************************************

Host: cfeld-pcx14803

Timers On : Mon Jun 14 16:30:10 2021
Timers Off: Mon Jun 14 16:30:16 2021

Wall Time:        6.53 seconds

                                                       Time (seconds)
Module                                       User      System        Wall        Calls

--------------------------------------------------------------------------------------

**************************************************************************************

Host: cfeld-pcx14803

Timers On : Mon Jun 14 16:30:51 2021
Timers Off: Mon Jun 14 16:30:55 2021

Wall Time:        4.39 seconds

                                                       Time (seconds)
Module                                       User      System        Wall        Calls

--------------------------------------------------------------------------------------

**************************************************************************************

Host: cfeld-pcx14803

Timers On : Mon Jun 14 16:31:14 2021
Timers Off: Mon Jun 14 16:31:16 2021

Wall Time:        2.35 seconds

                                                       Time (seconds)
Module                                       User      System        Wall        Calls

--------------------------------------------------------------------------------------

**************************************************************************************

Host: cfeld-pcx14803

Timers On : Mon Jun 14 16:31:24 2021
Timers Off: Mon Jun 14 16:31:29 2021

Wall Time:        5.03 seconds

                                                       Time (seconds)
Module                                       User      System        Wall        Calls

--------------------------------------------------------------------------------------

**************************************************************************************

Host: cfeld-pcx14803

Timers On : Mon Jun 14 16:31:49 2021
Timers Off: Mon Jun 14 16:31:54 2021

Wall Time:        5.56 seconds

                                                       Time (seconds)
Module                                       User      System        Wall        Calls

--------------------------------------------------------------------------------------

**************************************************************************************

Host: cfeld-pcx14803

Timers On : Mon Jun 14 16:33:24 2021
Timers Off: Mon Jun 14 16:33:30 2021

Wall Time:        6.18 seconds

                                                       Time (seconds)
Module                                       User      System        Wall        Calls

--------------------------------------------------------------------------------------

**************************************************************************************

Host: cfeld-pcx14803

Timers On : Mon Jun 14 16:35:05 2021
Timers Off: Mon Jun 14 16:35:12 2021

Wall Time:        6.60 seconds

                                                       Time (seconds)
Module                                       User      System        Wall        Calls

--------------------------------------------------------------------------------------

**************************************************************************************

Host: cfeld-pcx14803

Timers On : Mon Jun 14 16:36:41 2021
Timers Off: Mon Jun 14 16:36:47 2021

Wall Time:        6.26 seconds

                                                       Time (seconds)
Module                                       User      System        Wall        Calls

--------------------------------------------------------------------------------------

**************************************************************************************

Host: cfeld-pcx14803

Timers On : Mon Jun 14 16:37:15 2021
Timers Off: Mon Jun 14 16:37:22 2021

Wall Time:        7.23 seconds

                                                       Time (seconds)
Module                                       User      System        Wall        Calls

--------------------------------------------------------------------------------------

**************************************************************************************

Host: cfeld-pcx14803

Timers On : Mon Jun 14 16:37:45 2021
Timers Off: Mon Jun 14 16:37:50 2021

Wall Time:        4.97 seconds

                                                       Time (seconds)
Module                                       User      System        Wall        Calls

--------------------------------------------------------------------------------------

**************************************************************************************

Host: cfeld-pcx14803

Timers On : Mon Jun 14 16:38:49 2021
Timers Off: Mon Jun 14 16:38:56 2021

Wall Time:        6.84 seconds

                                                       Time (seconds)
Module                                       User      System        Wall        Calls

--------------------------------------------------------------------------------------

**************************************************************************************

Host: cfeld-pcx14803

Timers On : Tue Jun 15 14:11:12 2021
Timers Off: Tue Jun 15 14:11:14 2021

Wall Time:        2.83 seconds

                                                       Time (seconds)
Module                                       User      System        Wall        Calls

--------------------------------------------------------------------------------------

**************************************************************************************

Host: cfeld-pcx14803

Timers On : Tue Jun 15 14:12:03 2021
Timers Off: Tue Jun 15 14:16:14 2021

Wall Time:      250.54 seconds

                                                       Time (seconds)
Module                                       User      System        Wall        Calls

--------------------------------------------------------------------------------------

**************************************************************************************

Host: cfeld-pcx14803

Timers On : Tue Jun 15 14:26:49 2021
Timers Off: Tue Jun 15 14:27:32 2021

Wall Time:       42.86 seconds

                                                       Time (seconds)
Module                                       User      System        Wall        Calls

--------------------------------------------------------------------------------------

**************************************************************************************

Host: cfeld-pcx14803

Timers On : Tue Jun 15 14:27:38 2021
Timers Off: Tue Jun 15 14:28:35 2021

Wall Time:       56.88 seconds

                                                       Time (seconds)
Module                                       User      System        Wall        Calls

--------------------------------------------------------------------------------------

**************************************************************************************

Host: cfeld-pcx14803

Timers On : Tue Jun 15 14:29:10 2021
Timers Off: Tue Jun 15 14:30:05 2021

Wall Time:       54.57 seconds

                                                       Time (seconds)
Module                                       User      System        Wall        Calls

--------------------------------------------------------------------------------------

**************************************************************************************

Host: cfeld-pcx14803

Timers On : Tue Jun 15 14:30:16 2021
Timers Off: Tue Jun 15 14:30:55 2021

Wall Time:       39.13 seconds

                                                       Time (seconds)
Module                                       User      System        Wall        Calls

--------------------------------------------------------------------------------------

**************************************************************************************

Host: cfeld-pcx14803

Timers On : Tue Jun 15 14:32:03 2021
Timers Off: Tue Jun 15 14:32:41 2021

Wall Time:       38.30 seconds

                                                       Time (seconds)
Module                                       User      System        Wall        Calls

--------------------------------------------------------------------------------------

**************************************************************************************

Host: cfeld-pcx14803

Timers On : Tue Jun 15 14:35:15 2021
Timers Off: Tue Jun 15 14:35:44 2021

Wall Time:       29.02 seconds

                                                       Time (seconds)
Module                                       User      System        Wall        Calls

--------------------------------------------------------------------------------------

**************************************************************************************

Host: cfeld-pcx14803

Timers On : Tue Jun 15 14:36:17 2021
Timers Off: Tue Jun 15 14:36:51 2021

Wall Time:       34.58 seconds

                                                       Time (seconds)
Module                                       User      System        Wall        Calls

--------------------------------------------------------------------------------------

**************************************************************************************

Host: cfeld-pcx14803

Timers On : Tue Jun 15 14:37:41 2021
Timers Off: Tue Jun 15 14:38:25 2021

Wall Time:       43.87 seconds

                                                       Time (seconds)
Module                                       User      System        Wall        Calls

--------------------------------------------------------------------------------------

**************************************************************************************

Host: cfeld-pcx14803

Timers On : Tue Jun 15 14:40:56 2021
Timers Off: Tue Jun 15 14:42:30 2021

Wall Time:       93.06 seconds

                                                       Time (seconds)
Module                                       User      System        Wall        Calls

--------------------------------------------------------------------------------------

**************************************************************************************

Host: cfeld-pcx14803

Timers On : Tue Jun 15 14:42:36 2021
Timers Off: Tue Jun 15 14:42:54 2021

Wall Time:       17.90 seconds

                                                       Time (seconds)
Module                                       User      System        Wall        Calls

--------------------------------------------------------------------------------------

**************************************************************************************

Host: cfeld-pcx14803

Timers On : Tue Jun 15 14:43:10 2021
Timers Off: Tue Jun 15 14:53:57 2021

Wall Time:      646.26 seconds

                                                       Time (seconds)
Module                                       User      System        Wall        Calls

--------------------------------------------------------------------------------------

**************************************************************************************

Host: cfeld-pcx14803

Timers On : Tue Jun 15 15:50:48 2021
Timers Off: Tue Jun 15 15:51:28 2021

Wall Time:       39.67 seconds

                                                       Time (seconds)
Module                                       User      System        Wall        Calls

--------------------------------------------------------------------------------------

**************************************************************************************

Host: cfeld-pcx14803

Timers On : Tue Jun 15 15:51:34 2021
Timers Off: Tue Jun 15 15:52:16 2021

Wall Time:       42.56 seconds

                                                       Time (seconds)
Module                                       User      System        Wall        Calls

--------------------------------------------------------------------------------------

**************************************************************************************

Host: cfeld-pcx14803

Timers On : Tue Jun 15 15:52:23 2021
Timers Off: Tue Jun 15 15:53:01 2021

Wall Time:       38.44 seconds

                                                       Time (seconds)
Module                                       User      System        Wall        Calls

--------------------------------------------------------------------------------------

**************************************************************************************

Host: cfeld-pcx14803

Timers On : Tue Jun 15 15:53:39 2021
Timers Off: Tue Jun 15 15:53:41 2021

Wall Time:        2.31 seconds

                                                       Time (seconds)
Module                                       User      System        Wall        Calls

--------------------------------------------------------------------------------------

**************************************************************************************

Host: cfeld-pcx14803

Timers On : Tue Jun 15 17:33:12 2021
Timers Off: Tue Jun 15 17:33:17 2021

Wall Time:        4.96 seconds

                                                       Time (seconds)
Module                                       User      System        Wall        Calls

--------------------------------------------------------------------------------------

**************************************************************************************

Host: cfeld-pcx14803

Timers On : Tue Jun 15 17:39:20 2021
Timers Off: Tue Jun 15 17:39:23 2021

Wall Time:        2.87 seconds

                                                       Time (seconds)
Module                                       User      System        Wall        Calls

--------------------------------------------------------------------------------------

**************************************************************************************

Host: cfeld-pcx14803

Timers On : Tue Jun 15 17:44:10 2021
Timers Off: Tue Jun 15 17:44:12 2021

Wall Time:        2.11 seconds

                                                       Time (seconds)
Module                                       User      System        Wall        Calls

--------------------------------------------------------------------------------------

**************************************************************************************

Host: cfeld-pcx14803

Timers On : Tue Jun 15 17:44:25 2021
Timers Off: Tue Jun 15 17:45:14 2021

Wall Time:       48.98 seconds

                                                       Time (seconds)
Module                                       User      System        Wall        Calls

--------------------------------------------------------------------------------------

**************************************************************************************

Host: cfeld-pcx14803

Timers On : Tue Jun 15 17:45:30 2021
Timers Off: Tue Jun 15 17:46:14 2021

Wall Time:       43.52 seconds

                                                       Time (seconds)
Module                                       User      System        Wall        Calls

--------------------------------------------------------------------------------------

**************************************************************************************

Host: cfeld-pcx14803

Timers On : Tue Jun 15 17:46:31 2021
Timers Off: Tue Jun 15 17:48:32 2021

Wall Time:      120.21 seconds

                                                       Time (seconds)
Module                                       User      System        Wall        Calls

--------------------------------------------------------------------------------------

**************************************************************************************

Host: cfeld-pcx14803

Timers On : Wed Jun 16 08:57:01 2021
Timers Off: Wed Jun 16 09:03:08 2021

Wall Time:      367.29 seconds

                                                       Time (seconds)
Module                                       User      System        Wall        Calls

--------------------------------------------------------------------------------------

**************************************************************************************

Host: cfeld-pcx14803

Timers On : Wed Jun 16 09:03:17 2021
Timers Off: Wed Jun 16 09:11:28 2021

Wall Time:      491.18 seconds

                                                       Time (seconds)
Module                                       User      System        Wall        Calls

--------------------------------------------------------------------------------------

**************************************************************************************

Host: cfeld-pcx14803

Timers On : Wed Jun 16 09:24:14 2021
Timers Off: Wed Jun 16 09:32:31 2021

Wall Time:      497.06 seconds

                                                       Time (seconds)
Module                                       User      System        Wall        Calls

--------------------------------------------------------------------------------------

**************************************************************************************

Host: cfeld-pcx14803

Timers On : Wed Jun 16 09:40:06 2021
Timers Off: Wed Jun 16 09:45:14 2021

Wall Time:      308.40 seconds

                                                       Time (seconds)
Module                                       User      System        Wall        Calls

--------------------------------------------------------------------------------------

**************************************************************************************

Host: cfeld-pcx14803

Timers On : Wed Jun 16 11:34:26 2021
Timers Off: Wed Jun 16 11:46:47 2021

Wall Time:      741.00 seconds

                                                       Time (seconds)
Module                                       User      System        Wall        Calls

--------------------------------------------------------------------------------------

**************************************************************************************

Host: cfeld-pcx14803

Timers On : Thu Jun 17 09:31:36 2021
Timers Off: Thu Jun 17 09:32:15 2021

Wall Time:       39.54 seconds

                                                       Time (seconds)
Module                                       User      System        Wall        Calls

--------------------------------------------------------------------------------------

**************************************************************************************

Host: cfeld-pcx14803

Timers On : Thu Jun 17 09:33:09 2021
Timers Off: Thu Jun 17 09:33:11 2021

Wall Time:        1.73 seconds

                                                       Time (seconds)
Module                                       User      System        Wall        Calls

--------------------------------------------------------------------------------------

**************************************************************************************

Host: cfeld-pcx14803

Timers On : Thu Jun 17 09:33:36 2021
Timers Off: Thu Jun 17 09:33:57 2021

Wall Time:       20.49 seconds

                                                       Time (seconds)
Module                                       User      System        Wall        Calls

--------------------------------------------------------------------------------------

**************************************************************************************

Host: cfeld-pcx14803

Timers On : Thu Jun 17 09:34:08 2021
Timers Off: Thu Jun 17 09:34:40 2021

Wall Time:       32.29 seconds

                                                       Time (seconds)
Module                                       User      System        Wall        Calls

--------------------------------------------------------------------------------------

**************************************************************************************

Host: cfeld-pcx14803

Timers On : Thu Jun 17 09:47:36 2021
Timers Off: Thu Jun 17 10:12:24 2021

Wall Time:     1488.04 seconds

                                                       Time (seconds)
Module                                       User      System        Wall        Calls

--------------------------------------------------------------------------------------

**************************************************************************************

Host: cfeld-pcx14803

Timers On : Thu Jun 17 10:12:35 2021
Timers Off: Thu Jun 17 10:12:56 2021

Wall Time:       21.30 seconds

                                                       Time (seconds)
Module                                       User      System        Wall        Calls

--------------------------------------------------------------------------------------

**************************************************************************************

Host: cfeld-pcx14803

Timers On : Thu Jun 17 10:13:14 2021
Timers Off: Thu Jun 17 10:14:02 2021

Wall Time:       48.54 seconds

                                                       Time (seconds)
Module                                       User      System        Wall        Calls

--------------------------------------------------------------------------------------

**************************************************************************************

Host: cfeld-pcx14803

Timers On : Thu Jun 17 10:14:29 2021
Timers Off: Thu Jun 17 10:16:14 2021

Wall Time:      105.71 seconds

                                                       Time (seconds)
Module                                       User      System        Wall        Calls

--------------------------------------------------------------------------------------

**************************************************************************************

Host: cfeld-pcx14803

Timers On : Thu Jun 17 11:21:18 2021
Timers Off: Thu Jun 17 11:21:28 2021

Wall Time:        9.61 seconds

                                                       Time (seconds)
Module                                       User      System        Wall        Calls

--------------------------------------------------------------------------------------

**************************************************************************************

Host: cfeld-pcx14803

Timers On : Thu Jun 17 11:45:25 2021
Timers Off: Thu Jun 17 11:45:26 2021

Wall Time:        1.28 seconds

                                                       Time (seconds)
Module                                       User      System        Wall        Calls

--------------------------------------------------------------------------------------

**************************************************************************************

Host: cfeld-pcx14803

Timers On : Thu Jun 17 11:45:47 2021
Timers Off: Thu Jun 17 11:45:48 2021

Wall Time:        1.36 seconds

                                                       Time (seconds)
Module                                       User      System        Wall        Calls

--------------------------------------------------------------------------------------

**************************************************************************************

Host: cfeld-pcx14803

Timers On : Thu Jun 17 11:46:03 2021
Timers Off: Thu Jun 17 11:46:05 2021

Wall Time:        1.35 seconds

                                                       Time (seconds)
Module                                       User      System        Wall        Calls

--------------------------------------------------------------------------------------

**************************************************************************************

Host: cfeld-pcx14803

Timers On : Thu Jun 17 11:54:16 2021
Timers Off: Thu Jun 17 11:54:22 2021

Wall Time:        5.34 seconds

                                                       Time (seconds)
Module                                       User      System        Wall        Calls

--------------------------------------------------------------------------------------

**************************************************************************************

Host: cfeld-pcx14803

Timers On : Thu Jun 17 11:55:32 2021
Timers Off: Thu Jun 17 11:55:40 2021

Wall Time:        7.63 seconds

                                                       Time (seconds)
Module                                       User      System        Wall        Calls

--------------------------------------------------------------------------------------

**************************************************************************************

Host: cfeld-pcx14803

Timers On : Thu Jun 17 11:56:05 2021
Timers Off: Thu Jun 17 11:56:10 2021

Wall Time:        4.38 seconds

                                                       Time (seconds)
Module                                       User      System        Wall        Calls

--------------------------------------------------------------------------------------

**************************************************************************************

Host: cfeld-pcx14803

Timers On : Thu Jun 17 11:56:29 2021
Timers Off: Thu Jun 17 11:56:42 2021

Wall Time:       12.95 seconds

                                                       Time (seconds)
Module                                       User      System        Wall        Calls

--------------------------------------------------------------------------------------

**************************************************************************************

Host: cfeld-pcx14803

Timers On : Thu Jun 17 13:55:03 2021
Timers Off: Thu Jun 17 13:55:09 2021

Wall Time:        6.06 seconds

                                                       Time (seconds)
Module                                       User      System        Wall        Calls

--------------------------------------------------------------------------------------

**************************************************************************************

Host: cfeld-pcx14803

Timers On : Thu Jun 17 13:58:57 2021
Timers Off: Thu Jun 17 13:59:03 2021

Wall Time:        5.36 seconds

                                                       Time (seconds)
Module                                       User      System        Wall        Calls

--------------------------------------------------------------------------------------

**************************************************************************************

Host: cfeld-pcx14803

Timers On : Thu Jun 17 13:59:33 2021
Timers Off: Thu Jun 17 13:59:41 2021

Wall Time:        7.59 seconds

                                                       Time (seconds)
Module                                       User      System        Wall        Calls

--------------------------------------------------------------------------------------

**************************************************************************************

Host: cfeld-pcx14803

Timers On : Thu Jun 17 13:59:58 2021
Timers Off: Thu Jun 17 14:00:09 2021

Wall Time:       10.25 seconds

                                                       Time (seconds)
Module                                       User      System        Wall        Calls

--------------------------------------------------------------------------------------

**************************************************************************************

Host: cfeld-pcx14803

Timers On : Thu Jun 17 14:01:09 2021
Timers Off: Thu Jun 17 14:01:14 2021

Wall Time:        4.90 seconds

                                                       Time (seconds)
Module                                       User      System        Wall        Calls

--------------------------------------------------------------------------------------

**************************************************************************************

Host: cfeld-pcx14803

Timers On : Thu Jun 17 14:01:33 2021
Timers Off: Thu Jun 17 14:01:38 2021

Wall Time:        5.28 seconds

                                                       Time (seconds)
Module                                       User      System        Wall        Calls

--------------------------------------------------------------------------------------

**************************************************************************************

Host: cfeld-pcx14803

Timers On : Thu Jun 17 14:03:07 2021
Timers Off: Thu Jun 17 14:03:14 2021

Wall Time:        6.57 seconds

                                                       Time (seconds)
Module                                       User      System        Wall        Calls

--------------------------------------------------------------------------------------

**************************************************************************************

Host: cfeld-pcx14803

Timers On : Thu Jun 17 14:05:13 2021
Timers Off: Thu Jun 17 14:05:19 2021

Wall Time:        5.99 seconds

                                                       Time (seconds)
Module                                       User      System        Wall        Calls

--------------------------------------------------------------------------------------

**************************************************************************************

Host: cfeld-pcx14803

Timers On : Thu Jun 17 14:05:41 2021
Timers Off: Thu Jun 17 14:05:49 2021

Wall Time:        7.91 seconds

                                                       Time (seconds)
Module                                       User      System        Wall        Calls

--------------------------------------------------------------------------------------

**************************************************************************************

Host: cfeld-pcx14803

Timers On : Thu Jun 17 14:06:07 2021
Timers Off: Thu Jun 17 14:06:15 2021

Wall Time:        8.37 seconds

                                                       Time (seconds)
Module                                       User      System        Wall        Calls

--------------------------------------------------------------------------------------

**************************************************************************************

Host: cfeld-pcx14803

Timers On : Thu Jun 17 14:06:34 2021
Timers Off: Thu Jun 17 14:06:42 2021

Wall Time:        8.44 seconds

                                                       Time (seconds)
Module                                       User      System        Wall        Calls

--------------------------------------------------------------------------------------

**************************************************************************************

Host: cfeld-pcx14803

Timers On : Thu Jun 17 14:09:37 2021
Timers Off: Thu Jun 17 14:09:45 2021

Wall Time:        7.99 seconds

                                                       Time (seconds)
Module                                       User      System        Wall        Calls

--------------------------------------------------------------------------------------

**************************************************************************************

Host: cfeld-pcx14803

Timers On : Thu Jun 17 14:11:25 2021
Timers Off: Thu Jun 17 14:11:30 2021

Wall Time:        5.47 seconds

                                                       Time (seconds)
Module                                       User      System        Wall        Calls

--------------------------------------------------------------------------------------

**************************************************************************************

Host: cfeld-pcx14803

Timers On : Thu Jun 17 14:12:07 2021
Timers Off: Thu Jun 17 14:12:16 2021

Wall Time:        8.25 seconds

                                                       Time (seconds)
Module                                       User      System        Wall        Calls

--------------------------------------------------------------------------------------

**************************************************************************************

Host: cfeld-pcx14803

Timers On : Thu Jun 17 15:00:42 2021
Timers Off: Thu Jun 17 15:00:52 2021

Wall Time:        9.47 seconds

                                                       Time (seconds)
Module                                       User      System        Wall        Calls

--------------------------------------------------------------------------------------

**************************************************************************************

Host: cfeld-pcx14803

Timers On : Thu Jun 17 15:01:24 2021
Timers Off: Thu Jun 17 15:01:29 2021

Wall Time:        5.60 seconds

                                                       Time (seconds)
Module                                       User      System        Wall        Calls

--------------------------------------------------------------------------------------

**************************************************************************************

Host: cfeld-pcx14803

Timers On : Thu Jun 17 15:04:55 2021
Timers Off: Thu Jun 17 15:05:00 2021

Wall Time:        5.14 seconds

                                                       Time (seconds)
Module                                       User      System        Wall        Calls

--------------------------------------------------------------------------------------

**************************************************************************************

Host: cfeld-pcx14803

Timers On : Thu Jun 17 15:05:25 2021
Timers Off: Thu Jun 17 15:05:26 2021

Wall Time:        1.14 seconds

                                                       Time (seconds)
Module                                       User      System        Wall        Calls

--------------------------------------------------------------------------------------

**************************************************************************************

Host: cfeld-pcx14803

Timers On : Thu Jun 17 15:07:35 2021
Timers Off: Thu Jun 17 15:07:36 2021

Wall Time:        1.79 seconds

                                                       Time (seconds)
Module                                       User      System        Wall        Calls

--------------------------------------------------------------------------------------

**************************************************************************************

Host: cfeld-pcx14803

Timers On : Thu Jun 17 15:08:00 2021
Timers Off: Thu Jun 17 15:08:02 2021

Wall Time:        1.58 seconds

                                                       Time (seconds)
Module                                       User      System        Wall        Calls

--------------------------------------------------------------------------------------

**************************************************************************************

Host: cfeld-pcx14803

Timers On : Thu Jun 17 15:17:31 2021
Timers Off: Thu Jun 17 15:17:33 2021

Wall Time:        2.10 seconds

                                                       Time (seconds)
Module                                       User      System        Wall        Calls

--------------------------------------------------------------------------------------

**************************************************************************************

Host: cfeld-pcx14803

Timers On : Thu Jun 17 15:19:53 2021
Timers Off: Thu Jun 17 15:19:55 2021

Wall Time:        2.00 seconds

                                                       Time (seconds)
Module                                       User      System        Wall        Calls

--------------------------------------------------------------------------------------

**************************************************************************************

Host: cfeld-pcx14803

Timers On : Thu Jun 17 15:21:42 2021
Timers Off: Thu Jun 17 15:21:43 2021

Wall Time:        1.70 seconds

                                                       Time (seconds)
Module                                       User      System        Wall        Calls

--------------------------------------------------------------------------------------

**************************************************************************************

Host: cfeld-pcx14803

Timers On : Thu Jun 17 15:22:12 2021
Timers Off: Thu Jun 17 15:22:14 2021

Wall Time:        2.08 seconds

                                                       Time (seconds)
Module                                       User      System        Wall        Calls

--------------------------------------------------------------------------------------

**************************************************************************************

Host: cfeld-pcx14803

Timers On : Thu Jun 17 15:22:23 2021
Timers Off: Thu Jun 17 15:22:24 2021

Wall Time:        1.85 seconds

                                                       Time (seconds)
Module                                       User      System        Wall        Calls

--------------------------------------------------------------------------------------

**************************************************************************************

Host: cfeld-pcx14803

Timers On : Thu Jun 17 15:22:48 2021
Timers Off: Thu Jun 17 15:22:49 2021

Wall Time:        1.53 seconds

                                                       Time (seconds)
Module                                       User      System        Wall        Calls

--------------------------------------------------------------------------------------

**************************************************************************************

Host: cfeld-pcx14803

Timers On : Thu Jun 17 15:23:32 2021
Timers Off: Thu Jun 17 15:23:33 2021

Wall Time:        1.16 seconds

                                                       Time (seconds)
Module                                       User      System        Wall        Calls

--------------------------------------------------------------------------------------

**************************************************************************************

Host: cfeld-pcx14803

Timers On : Thu Jun 17 15:26:38 2021
Timers Off: Thu Jun 17 15:26:40 2021

Wall Time:        1.84 seconds

                                                       Time (seconds)
Module                                       User      System        Wall        Calls

--------------------------------------------------------------------------------------

**************************************************************************************

Host: cfeld-pcx14803

Timers On : Thu Jun 17 15:27:27 2021
Timers Off: Thu Jun 17 15:27:29 2021

Wall Time:        1.70 seconds

                                                       Time (seconds)
Module                                       User      System        Wall        Calls

--------------------------------------------------------------------------------------

**************************************************************************************

Host: cfeld-pcx14803

Timers On : Thu Jun 17 15:28:23 2021
Timers Off: Thu Jun 17 15:28:25 2021

Wall Time:        1.65 seconds

                                                       Time (seconds)
Module                                       User      System        Wall        Calls

--------------------------------------------------------------------------------------

**************************************************************************************

Host: cfeld-pcx14803

Timers On : Thu Jun 17 15:30:52 2021
Timers Off: Thu Jun 17 15:30:54 2021

Wall Time:        1.92 seconds

                                                       Time (seconds)
Module                                       User      System        Wall        Calls

--------------------------------------------------------------------------------------

**************************************************************************************

Host: cfeld-pcx14803

Timers On : Thu Jun 17 15:31:24 2021
Timers Off: Thu Jun 17 15:31:25 2021

Wall Time:        1.14 seconds

                                                       Time (seconds)
Module                                       User      System        Wall        Calls

--------------------------------------------------------------------------------------

**************************************************************************************

Host: cfeld-pcx14803

Timers On : Thu Jun 17 15:32:19 2021
Timers Off: Thu Jun 17 15:32:20 2021

Wall Time:        1.13 seconds

                                                       Time (seconds)
Module                                       User      System        Wall        Calls

--------------------------------------------------------------------------------------

**************************************************************************************

Host: cfeld-pcx14803

Timers On : Thu Jun 17 15:32:41 2021
Timers Off: Thu Jun 17 15:32:42 2021

Wall Time:        1.13 seconds

                                                       Time (seconds)
Module                                       User      System        Wall        Calls

--------------------------------------------------------------------------------------

**************************************************************************************

Host: cfeld-pcx14803

Timers On : Thu Jun 17 15:33:03 2021
Timers Off: Thu Jun 17 15:33:04 2021

Wall Time:        1.26 seconds

                                                       Time (seconds)
Module                                       User      System        Wall        Calls

--------------------------------------------------------------------------------------

**************************************************************************************

Host: cfeld-pcx14803

Timers On : Thu Jun 17 15:34:13 2021
Timers Off: Thu Jun 17 15:34:21 2021

Wall Time:        8.03 seconds

                                                       Time (seconds)
Module                                       User      System        Wall        Calls

--------------------------------------------------------------------------------------

**************************************************************************************

Host: cfeld-pcx14803

Timers On : Thu Jun 17 15:34:36 2021
Timers Off: Thu Jun 17 15:34:44 2021

Wall Time:        7.50 seconds

                                                       Time (seconds)
Module                                       User      System        Wall        Calls

--------------------------------------------------------------------------------------

**************************************************************************************

Host: cfeld-pcx14803

Timers On : Thu Jun 17 15:38:02 2021
Timers Off: Thu Jun 17 15:38:24 2021

Wall Time:       22.03 seconds

                                                       Time (seconds)
Module                                       User      System        Wall        Calls

--------------------------------------------------------------------------------------

**************************************************************************************

Host: cfeld-pcx14803

Timers On : Thu Jun 17 15:39:12 2021
Timers Off: Thu Jun 17 15:39:26 2021

Wall Time:       14.20 seconds

                                                       Time (seconds)
Module                                       User      System        Wall        Calls

--------------------------------------------------------------------------------------

**************************************************************************************

Host: cfeld-pcx14803

Timers On : Thu Jun 17 15:41:31 2021
Timers Off: Thu Jun 17 15:41:33 2021

Wall Time:        1.89 seconds

                                                       Time (seconds)
Module                                       User      System        Wall        Calls

--------------------------------------------------------------------------------------

**************************************************************************************

Host: cfeld-pcx14803

Timers On : Thu Jun 17 15:42:09 2021
Timers Off: Thu Jun 17 15:42:10 2021

Wall Time:        1.00 seconds

                                                       Time (seconds)
Module                                       User      System        Wall        Calls

--------------------------------------------------------------------------------------

**************************************************************************************

Host: cfeld-pcx14803

Timers On : Thu Jun 17 15:44:16 2021
Timers Off: Thu Jun 17 15:44:17 2021

Wall Time:        1.07 seconds

                                                       Time (seconds)
Module                                       User      System        Wall        Calls

--------------------------------------------------------------------------------------

**************************************************************************************

Host: cfeld-pcx14803

Timers On : Thu Jun 17 15:44:25 2021
Timers Off: Thu Jun 17 15:44:37 2021

Wall Time:       11.81 seconds

                                                       Time (seconds)
Module                                       User      System        Wall        Calls

--------------------------------------------------------------------------------------

**************************************************************************************

Host: cfeld-pcx14803

Timers On : Thu Jun 17 15:45:00 2021
Timers Off: Thu Jun 17 15:45:04 2021

Wall Time:        3.90 seconds

                                                       Time (seconds)
Module                                       User      System        Wall        Calls

--------------------------------------------------------------------------------------

**************************************************************************************

Host: cfeld-pcx14803

Timers On : Thu Jun 17 15:45:14 2021
Timers Off: Thu Jun 17 15:45:24 2021

Wall Time:        9.75 seconds

                                                       Time (seconds)
Module                                       User      System        Wall        Calls

--------------------------------------------------------------------------------------

**************************************************************************************

Host: cfeld-pcx14803

Timers On : Thu Jun 17 15:46:41 2021
Timers Off: Thu Jun 17 15:47:01 2021

Wall Time:       19.34 seconds

                                                       Time (seconds)
Module                                       User      System        Wall        Calls

--------------------------------------------------------------------------------------

**************************************************************************************

Host: cfeld-pcx14803

Timers On : Thu Jun 17 15:47:16 2021
Timers Off: Thu Jun 17 15:48:12 2021

Wall Time:       55.39 seconds

                                                       Time (seconds)
Module                                       User      System        Wall        Calls

--------------------------------------------------------------------------------------

**************************************************************************************

Host: cfeld-pcx14803

Timers On : Thu Jun 17 16:13:00 2021
Timers Off: Thu Jun 17 16:13:07 2021

Wall Time:        7.11 seconds

                                                       Time (seconds)
Module                                       User      System        Wall        Calls

--------------------------------------------------------------------------------------

**************************************************************************************

Host: cfeld-pcx14803

Timers On : Thu Jun 17 16:13:27 2021
Timers Off: Thu Jun 17 16:13:31 2021

Wall Time:        4.35 seconds

                                                       Time (seconds)
Module                                       User      System        Wall        Calls

--------------------------------------------------------------------------------------

**************************************************************************************

Host: cfeld-pcx14803

Timers On : Thu Jun 17 16:19:28 2021
Timers Off: Thu Jun 17 16:19:32 2021

Wall Time:        4.05 seconds

                                                       Time (seconds)
Module                                       User      System        Wall        Calls

--------------------------------------------------------------------------------------

**************************************************************************************

Host: cfeld-pcx14803

Timers On : Thu Jun 17 16:20:11 2021
Timers Off: Thu Jun 17 16:20:15 2021

Wall Time:        3.40 seconds

                                                       Time (seconds)
Module                                       User      System        Wall        Calls

--------------------------------------------------------------------------------------

**************************************************************************************

Host: cfeld-pcx14803

Timers On : Thu Jun 17 16:21:40 2021
Timers Off: Thu Jun 17 16:21:43 2021

Wall Time:        3.31 seconds

                                                       Time (seconds)
Module                                       User      System        Wall        Calls

--------------------------------------------------------------------------------------

**************************************************************************************

Host: cfeld-pcx14803

Timers On : Thu Jun 17 16:22:05 2021
Timers Off: Thu Jun 17 16:22:09 2021

Wall Time:        3.88 seconds

                                                       Time (seconds)
Module                                       User      System        Wall        Calls

--------------------------------------------------------------------------------------

**************************************************************************************

Host: cfeld-pcx14803

Timers On : Thu Jun 17 16:22:46 2021
Timers Off: Thu Jun 17 16:22:50 2021

Wall Time:        3.77 seconds

                                                       Time (seconds)
Module                                       User      System        Wall        Calls

--------------------------------------------------------------------------------------

**************************************************************************************

Host: cfeld-pcx14803

Timers On : Thu Jun 17 16:23:44 2021
Timers Off: Thu Jun 17 16:23:47 2021

Wall Time:        3.36 seconds

                                                       Time (seconds)
Module                                       User      System        Wall        Calls

--------------------------------------------------------------------------------------

**************************************************************************************

Host: cfeld-pcx14803

Timers On : Thu Jun 17 16:24:03 2021
Timers Off: Thu Jun 17 16:24:04 2021

Wall Time:        1.31 seconds

                                                       Time (seconds)
Module                                       User      System        Wall        Calls

--------------------------------------------------------------------------------------

**************************************************************************************

Host: cfeld-pcx14803

Timers On : Thu Jun 17 16:24:23 2021
Timers Off: Thu Jun 17 16:24:25 2021

Wall Time:        1.95 seconds

                                                       Time (seconds)
Module                                       User      System        Wall        Calls

--------------------------------------------------------------------------------------

**************************************************************************************

Host: cfeld-pcx14803

Timers On : Thu Jun 17 16:24:34 2021
Timers Off: Thu Jun 17 16:24:36 2021

Wall Time:        1.97 seconds

                                                       Time (seconds)
Module                                       User      System        Wall        Calls

--------------------------------------------------------------------------------------

**************************************************************************************

Host: cfeld-pcx14803

Timers On : Thu Jun 17 16:25:51 2021
Timers Off: Thu Jun 17 16:25:53 2021

Wall Time:        1.94 seconds

                                                       Time (seconds)
Module                                       User      System        Wall        Calls

--------------------------------------------------------------------------------------

**************************************************************************************

Host: cfeld-pcx14803

Timers On : Thu Jun 17 16:26:27 2021
Timers Off: Thu Jun 17 16:26:29 2021

Wall Time:        1.31 seconds

                                                       Time (seconds)
Module                                       User      System        Wall        Calls

--------------------------------------------------------------------------------------

**************************************************************************************

Host: cfeld-pcx14803

Timers On : Thu Jun 17 16:27:08 2021
Timers Off: Thu Jun 17 16:27:09 2021

Wall Time:        1.78 seconds

                                                       Time (seconds)
Module                                       User      System        Wall        Calls

--------------------------------------------------------------------------------------

**************************************************************************************

Host: cfeld-pcx14803

Timers On : Thu Jun 17 16:27:15 2021
Timers Off: Thu Jun 17 16:27:24 2021

Wall Time:        8.50 seconds

                                                       Time (seconds)
Module                                       User      System        Wall        Calls

--------------------------------------------------------------------------------------

**************************************************************************************

Host: cfeld-pcx14803

Timers On : Thu Jun 17 16:27:36 2021
Timers Off: Thu Jun 17 16:28:17 2021

Wall Time:       40.56 seconds

                                                       Time (seconds)
Module                                       User      System        Wall        Calls

--------------------------------------------------------------------------------------

**************************************************************************************

Host: cfeld-pcx14803

Timers On : Thu Jun 17 16:28:36 2021
Timers Off: Thu Jun 17 16:28:48 2021

Wall Time:       11.66 seconds

                                                       Time (seconds)
Module                                       User      System        Wall        Calls

--------------------------------------------------------------------------------------

**************************************************************************************

Host: cfeld-pcx14803

Timers On : Thu Jun 17 16:29:04 2021
Timers Off: Thu Jun 17 16:29:27 2021

Wall Time:       22.22 seconds

                                                       Time (seconds)
Module                                       User      System        Wall        Calls

--------------------------------------------------------------------------------------

**************************************************************************************

Host: cfeld-pcx14803

Timers On : Thu Jun 17 16:29:33 2021
Timers Off: Thu Jun 17 16:29:40 2021

Wall Time:        6.35 seconds

                                                       Time (seconds)
Module                                       User      System        Wall        Calls

--------------------------------------------------------------------------------------

**************************************************************************************

Host: cfeld-pcx14803

Timers On : Thu Jun 17 16:38:30 2021
Timers Off: Thu Jun 17 16:38:32 2021

Wall Time:        1.65 seconds

                                                       Time (seconds)
Module                                       User      System        Wall        Calls

--------------------------------------------------------------------------------------

**************************************************************************************

Host: cfeld-pcx14803

Timers On : Thu Jun 17 16:42:59 2021
Timers Off: Thu Jun 17 16:43:01 2021

Wall Time:        1.81 seconds

                                                       Time (seconds)
Module                                       User      System        Wall        Calls

--------------------------------------------------------------------------------------

**************************************************************************************

Host: cfeld-pcx14803

Timers On : Thu Jun 17 16:43:14 2021
Timers Off: Thu Jun 17 16:43:16 2021

Wall Time:        1.51 seconds

                                                       Time (seconds)
Module                                       User      System        Wall        Calls

--------------------------------------------------------------------------------------

**************************************************************************************

Host: cfeld-pcx14803

Timers On : Thu Jun 17 16:46:10 2021
Timers Off: Thu Jun 17 16:46:11 2021

Wall Time:        1.22 seconds

                                                       Time (seconds)
Module                                       User      System        Wall        Calls

--------------------------------------------------------------------------------------

**************************************************************************************

Host: cfeld-pcx14803

Timers On : Thu Jun 17 18:14:02 2021
Timers Off: Thu Jun 17 18:14:09 2021

Wall Time:        7.23 seconds

                                                       Time (seconds)
Module                                       User      System        Wall        Calls

--------------------------------------------------------------------------------------

**************************************************************************************

Host: cfeld-pcx14803

Timers On : Thu Jun 17 18:15:29 2021
Timers Off: Thu Jun 17 18:15:30 2021

Wall Time:        1.74 seconds

                                                       Time (seconds)
Module                                       User      System        Wall        Calls

--------------------------------------------------------------------------------------

**************************************************************************************

Host: cfeld-pcx14803

Timers On : Thu Jun 17 18:15:40 2021
Timers Off: Thu Jun 17 18:15:41 2021

Wall Time:        1.48 seconds

                                                       Time (seconds)
Module                                       User      System        Wall        Calls

--------------------------------------------------------------------------------------

**************************************************************************************
