
Host: cfeld-pcx14803

Timers On : Fri Jul 30 09:52:57 2021
Timers Off: Fri Jul 30 09:52:59 2021

Wall Time:        1.88 seconds

                                                       Time (seconds)
Module                                       User      System        Wall        Calls

--------------------------------------------------------------------------------------

**************************************************************************************

Host: cfeld-pcx14803

Timers On : Fri Jul 30 09:53:18 2021
Timers Off: Fri Jul 30 09:54:02 2021

Wall Time:       43.85 seconds

                                                       Time (seconds)
Module                                       User      System        Wall        Calls

--------------------------------------------------------------------------------------

**************************************************************************************

Host: cfeld-pcx14803

Timers On : Fri Jul 30 09:54:08 2021
Timers Off: Fri Jul 30 09:54:22 2021

Wall Time:       14.02 seconds

                                                       Time (seconds)
Module                                       User      System        Wall        Calls

--------------------------------------------------------------------------------------

**************************************************************************************

Host: cfeld-pcx14803

Timers On : Fri Jul 30 09:54:52 2021
Timers Off: Fri Jul 30 09:55:06 2021

Wall Time:       13.27 seconds

                                                       Time (seconds)
Module                                       User      System        Wall        Calls

--------------------------------------------------------------------------------------

**************************************************************************************

Host: cfeld-pcx14803

Timers On : Fri Jul 30 09:55:14 2021
Timers Off: Fri Jul 30 09:55:28 2021

Wall Time:       14.56 seconds

                                                       Time (seconds)
Module                                       User      System        Wall        Calls

--------------------------------------------------------------------------------------

**************************************************************************************

Host: cfeld-pcx14803

Timers On : Fri Jul 30 09:55:58 2021
Timers Off: Fri Jul 30 09:56:46 2021

Wall Time:       48.10 seconds

                                                       Time (seconds)
Module                                       User      System        Wall        Calls

--------------------------------------------------------------------------------------

**************************************************************************************

Host: cfeld-pcx14803

Timers On : Fri Jul 30 10:12:36 2021
Timers Off: Fri Jul 30 10:12:38 2021

Wall Time:        2.08 seconds

                                                       Time (seconds)
Module                                       User      System        Wall        Calls

--------------------------------------------------------------------------------------

**************************************************************************************

Host: cfeld-pcx14803

Timers On : Fri Jul 30 10:13:02 2021
Timers Off: Fri Jul 30 10:16:23 2021

Wall Time:      201.56 seconds

                                                       Time (seconds)
Module                                       User      System        Wall        Calls

--------------------------------------------------------------------------------------

**************************************************************************************

Host: cfeld-pcx14803

Timers On : Fri Jul 30 12:13:27 2021
Timers Off: Fri Jul 30 12:13:29 2021

Wall Time:        1.80 seconds

                                                       Time (seconds)
Module                                       User      System        Wall        Calls

--------------------------------------------------------------------------------------

**************************************************************************************

Host: cfeld-pcx14803

Timers On : Fri Jul 30 12:14:20 2021
Timers Off: Fri Jul 30 12:14:21 2021

Wall Time:        1.08 seconds

                                                       Time (seconds)
Module                                       User      System        Wall        Calls

--------------------------------------------------------------------------------------

**************************************************************************************

Host: cfeld-pcx14803

Timers On : Fri Jul 30 12:14:53 2021
Timers Off: Fri Jul 30 12:14:55 2021

Wall Time:        1.47 seconds

                                                       Time (seconds)
Module                                       User      System        Wall        Calls

--------------------------------------------------------------------------------------

**************************************************************************************

Host: cfeld-pcx14803

Timers On : Fri Jul 30 12:15:22 2021
Timers Off: Fri Jul 30 12:15:23 2021

Wall Time:        1.39 seconds

                                                       Time (seconds)
Module                                       User      System        Wall        Calls

--------------------------------------------------------------------------------------

**************************************************************************************

Host: cfeld-pcx14803

Timers On : Fri Jul 30 12:15:57 2021
Timers Off: Fri Jul 30 12:16:09 2021

Wall Time:       11.93 seconds

                                                       Time (seconds)
Module                                       User      System        Wall        Calls

--------------------------------------------------------------------------------------

**************************************************************************************

Host: cfeld-pcx14803

Timers On : Fri Jul 30 12:17:21 2021
Timers Off: Fri Jul 30 12:17:31 2021

Wall Time:       10.27 seconds

                                                       Time (seconds)
Module                                       User      System        Wall        Calls

--------------------------------------------------------------------------------------

**************************************************************************************

Host: cfeld-pcx14803

Timers On : Fri Jul 30 12:18:16 2021
Timers Off: Fri Jul 30 12:18:22 2021

Wall Time:        5.87 seconds

                                                       Time (seconds)
Module                                       User      System        Wall        Calls

--------------------------------------------------------------------------------------

**************************************************************************************

Host: cfeld-pcx14803

Timers On : Mon Aug  2 12:25:35 2021
Timers Off: Mon Aug  2 12:25:40 2021

Wall Time:        4.64 seconds

                                                       Time (seconds)
Module                                       User      System        Wall        Calls

--------------------------------------------------------------------------------------

**************************************************************************************

Host: cfeld-pcx14803

Timers On : Tue Aug  3 09:03:02 2021
Timers Off: Tue Aug  3 09:03:03 2021

Wall Time:        1.15 seconds

                                                       Time (seconds)
Module                                       User      System        Wall        Calls

--------------------------------------------------------------------------------------

**************************************************************************************

Host: cfeld-pcx14803

Timers On : Tue Aug  3 09:05:48 2021
Timers Off: Tue Aug  3 09:06:05 2021

Wall Time:       17.13 seconds

                                                       Time (seconds)
Module                                       User      System        Wall        Calls

--------------------------------------------------------------------------------------

**************************************************************************************

Host: cfeld-pcx14803

Timers On : Tue Aug  3 09:06:48 2021
Timers Off: Tue Aug  3 09:06:52 2021

Wall Time:        4.00 seconds

                                                       Time (seconds)
Module                                       User      System        Wall        Calls

--------------------------------------------------------------------------------------

**************************************************************************************

Host: cfeld-pcx14803

Timers On : Tue Aug  3 09:07:06 2021
Timers Off: Tue Aug  3 09:07:13 2021

Wall Time:        6.46 seconds

                                                       Time (seconds)
Module                                       User      System        Wall        Calls

--------------------------------------------------------------------------------------

**************************************************************************************

Host: cfeld-pcx14803

Timers On : Tue Aug  3 09:07:24 2021
Timers Off: Tue Aug  3 09:07:55 2021

Wall Time:       31.51 seconds

                                                       Time (seconds)
Module                                       User      System        Wall        Calls

--------------------------------------------------------------------------------------

**************************************************************************************

Host: cfeld-pcx14803

Timers On : Tue Aug  3 09:41:31 2021
Timers Off: Tue Aug  3 09:43:26 2021

Wall Time:      114.92 seconds

                                                       Time (seconds)
Module                                       User      System        Wall        Calls

--------------------------------------------------------------------------------------

**************************************************************************************

Host: cfeld-pcx14803

Timers On : Tue Aug  3 10:21:20 2021
Timers Off: Tue Aug  3 10:21:40 2021

Wall Time:       20.02 seconds

                                                       Time (seconds)
Module                                       User      System        Wall        Calls

--------------------------------------------------------------------------------------

**************************************************************************************

Host: cfeld-pcx14803

Timers On : Tue Aug  3 11:39:28 2021
Timers Off: Tue Aug  3 11:39:39 2021

Wall Time:       10.79 seconds

                                                       Time (seconds)
Module                                       User      System        Wall        Calls

--------------------------------------------------------------------------------------

**************************************************************************************

Host: cfeld-pcx14803

Timers On : Tue Aug  3 13:10:57 2021
Timers Off: Tue Aug  3 13:12:03 2021

Wall Time:       66.28 seconds

                                                       Time (seconds)
Module                                       User      System        Wall        Calls

--------------------------------------------------------------------------------------

**************************************************************************************

Host: cfeld-pcx14803

Timers On : Wed Aug  4 12:49:32 2021
Timers Off: Wed Aug  4 12:49:34 2021

Wall Time:        2.02 seconds

                                                       Time (seconds)
Module                                       User      System        Wall        Calls

--------------------------------------------------------------------------------------

**************************************************************************************

Host: cfeld-pcx14803

Timers On : Wed Aug  4 12:49:59 2021
Timers Off: Wed Aug  4 12:50:34 2021

Wall Time:       35.56 seconds

                                                       Time (seconds)
Module                                       User      System        Wall        Calls

--------------------------------------------------------------------------------------

**************************************************************************************

Host: cfeld-pcx14803

Timers On : Wed Aug  4 12:51:21 2021
Timers Off: Wed Aug  4 12:51:43 2021

Wall Time:       22.34 seconds

                                                       Time (seconds)
Module                                       User      System        Wall        Calls

--------------------------------------------------------------------------------------

**************************************************************************************

Host: cfeld-pcx14803

Timers On : Wed Aug  4 12:52:05 2021
Timers Off: Wed Aug  4 12:52:16 2021

Wall Time:       11.38 seconds

                                                       Time (seconds)
Module                                       User      System        Wall        Calls

--------------------------------------------------------------------------------------

**************************************************************************************

Host: cfeld-pcx14803

Timers On : Wed Aug  4 12:52:30 2021
Timers Off: Wed Aug  4 12:52:42 2021

Wall Time:       12.45 seconds

                                                       Time (seconds)
Module                                       User      System        Wall        Calls

--------------------------------------------------------------------------------------

**************************************************************************************

Host: cfeld-pcx14803

Timers On : Wed Aug  4 12:54:06 2021
Timers Off: Wed Aug  4 12:54:25 2021

Wall Time:       19.36 seconds

                                                       Time (seconds)
Module                                       User      System        Wall        Calls

--------------------------------------------------------------------------------------

**************************************************************************************

Host: cfeld-pcx14803

Timers On : Wed Aug  4 12:54:35 2021
Timers Off: Wed Aug  4 12:54:47 2021

Wall Time:       12.03 seconds

                                                       Time (seconds)
Module                                       User      System        Wall        Calls

--------------------------------------------------------------------------------------

**************************************************************************************

Host: cfeld-pcx14803

Timers On : Wed Aug  4 12:55:05 2021
Timers Off: Wed Aug  4 12:55:24 2021

Wall Time:       18.75 seconds

                                                       Time (seconds)
Module                                       User      System        Wall        Calls

--------------------------------------------------------------------------------------

**************************************************************************************

Host: cfeld-pcx14803

Timers On : Thu Aug  5 11:38:10 2021
Timers Off: Thu Aug  5 11:38:24 2021

Wall Time:       14.30 seconds

                                                       Time (seconds)
Module                                       User      System        Wall        Calls

--------------------------------------------------------------------------------------

**************************************************************************************

Host: cfeld-pcx14803

Timers On : Thu Aug  5 11:38:33 2021
Timers Off: Thu Aug  5 11:39:20 2021

Wall Time:       46.62 seconds

                                                       Time (seconds)
Module                                       User      System        Wall        Calls

--------------------------------------------------------------------------------------

**************************************************************************************

Host: cfeld-pcx14803

Timers On : Thu Aug  5 11:39:30 2021
Timers Off: Thu Aug  5 11:53:36 2021

Wall Time:      845.61 seconds

                                                       Time (seconds)
Module                                       User      System        Wall        Calls

--------------------------------------------------------------------------------------

**************************************************************************************

Host: cfeld-pcx14803

Timers On : Wed Aug 11 17:24:49 2021
Timers Off: Wed Aug 11 17:25:17 2021

Wall Time:       28.29 seconds

                                                       Time (seconds)
Module                                       User      System        Wall        Calls

--------------------------------------------------------------------------------------

**************************************************************************************

Host: cfeld-pcx14803

Timers On : Wed Aug 11 17:30:13 2021
Timers Off: Wed Aug 11 17:30:37 2021

Wall Time:       24.15 seconds

                                                       Time (seconds)
Module                                       User      System        Wall        Calls

--------------------------------------------------------------------------------------

**************************************************************************************

Host: cfeld-pcx14803

Timers On : Wed Aug 11 18:10:18 2021
Timers Off: Wed Aug 11 18:10:42 2021

Wall Time:       23.80 seconds

                                                       Time (seconds)
Module                                       User      System        Wall        Calls

--------------------------------------------------------------------------------------

**************************************************************************************

Host: cfeld-pcx14803

Timers On : Thu Aug 12 14:46:18 2021
Timers Off: Thu Aug 12 14:46:42 2021

Wall Time:       23.70 seconds

                                                       Time (seconds)
Module                                       User      System        Wall        Calls

--------------------------------------------------------------------------------------

**************************************************************************************

Host: cfeld-pcx14803

Timers On : Thu Aug 12 14:54:40 2021
Timers Off: Thu Aug 12 14:56:13 2021

Wall Time:       92.81 seconds

                                                       Time (seconds)
Module                                       User      System        Wall        Calls

--------------------------------------------------------------------------------------

**************************************************************************************

Host: cfeld-pcx14803

Timers On : Thu Aug 12 15:12:21 2021
Timers Off: Thu Aug 12 15:12:47 2021

Wall Time:       26.15 seconds

                                                       Time (seconds)
Module                                       User      System        Wall        Calls

--------------------------------------------------------------------------------------

**************************************************************************************

Host: cfeld-pcx14803

Timers On : Thu Aug 12 17:17:46 2021
Timers Off: Thu Aug 12 17:34:01 2021

Wall Time:      974.92 seconds

                                                       Time (seconds)
Module                                       User      System        Wall        Calls

--------------------------------------------------------------------------------------

**************************************************************************************

Host: cfeld-pcx14803

Timers On : Thu Aug 12 17:35:48 2021
Timers Off: Thu Aug 12 17:36:18 2021

Wall Time:       29.63 seconds

                                                       Time (seconds)
Module                                       User      System        Wall        Calls

--------------------------------------------------------------------------------------

**************************************************************************************

Host: cfeld-pcx14803

Timers On : Fri Aug 13 11:06:40 2021
Timers Off: Fri Aug 13 11:07:05 2021

Wall Time:       25.07 seconds

                                                       Time (seconds)
Module                                       User      System        Wall        Calls

--------------------------------------------------------------------------------------

**************************************************************************************

Host: cfeld-pcx14803

Timers On : Fri Aug 13 11:13:37 2021
Timers Off: Fri Aug 13 11:13:55 2021

Wall Time:       18.17 seconds

                                                       Time (seconds)
Module                                       User      System        Wall        Calls

--------------------------------------------------------------------------------------

**************************************************************************************

Host: cfeld-pcx14803

Timers On : Fri Aug 13 11:18:37 2021
Timers Off: Fri Aug 13 11:19:57 2021

Wall Time:       80.29 seconds

                                                       Time (seconds)
Module                                       User      System        Wall        Calls

--------------------------------------------------------------------------------------

**************************************************************************************

Host: cfeld-pcx14803

Timers On : Fri Aug 13 11:36:35 2021
Timers Off: Fri Aug 13 11:36:38 2021

Wall Time:        2.36 seconds

                                                       Time (seconds)
Module                                       User      System        Wall        Calls

--------------------------------------------------------------------------------------

**************************************************************************************

Host: cfeld-pcx14803

Timers On : Fri Aug 13 11:37:10 2021
Timers Off: Fri Aug 13 11:37:11 2021

Wall Time:        1.74 seconds

                                                       Time (seconds)
Module                                       User      System        Wall        Calls

--------------------------------------------------------------------------------------

**************************************************************************************

Host: cfeld-pcx14803

Timers On : Fri Aug 13 11:39:25 2021
Timers Off: Fri Aug 13 11:39:27 2021

Wall Time:        1.87 seconds

                                                       Time (seconds)
Module                                       User      System        Wall        Calls

--------------------------------------------------------------------------------------

**************************************************************************************

Host: cfeld-pcx14803

Timers On : Fri Aug 13 11:40:19 2021
Timers Off: Fri Aug 13 11:40:21 2021

Wall Time:        1.76 seconds

                                                       Time (seconds)
Module                                       User      System        Wall        Calls

--------------------------------------------------------------------------------------

**************************************************************************************

Host: cfeld-pcx14803

Timers On : Fri Aug 13 11:41:05 2021
Timers Off: Fri Aug 13 11:41:06 2021

Wall Time:        1.58 seconds

                                                       Time (seconds)
Module                                       User      System        Wall        Calls

--------------------------------------------------------------------------------------

**************************************************************************************

Host: cfeld-pcx14803

Timers On : Fri Aug 13 11:42:57 2021
Timers Off: Fri Aug 13 11:42:59 2021

Wall Time:        2.27 seconds

                                                       Time (seconds)
Module                                       User      System        Wall        Calls

--------------------------------------------------------------------------------------

**************************************************************************************

Host: cfeld-pcx14803

Timers On : Fri Aug 13 11:45:42 2021
Timers Off: Fri Aug 13 11:45:44 2021

Wall Time:        2.32 seconds

                                                       Time (seconds)
Module                                       User      System        Wall        Calls

--------------------------------------------------------------------------------------

**************************************************************************************

Host: cfeld-pcx14803

Timers On : Fri Aug 13 11:46:21 2021
Timers Off: Fri Aug 13 11:46:24 2021

Wall Time:        2.81 seconds

                                                       Time (seconds)
Module                                       User      System        Wall        Calls

--------------------------------------------------------------------------------------

**************************************************************************************

Host: cfeld-pcx14803

Timers On : Fri Aug 13 11:50:16 2021
Timers Off: Fri Aug 13 11:50:19 2021

Wall Time:        3.54 seconds

                                                       Time (seconds)
Module                                       User      System        Wall        Calls

--------------------------------------------------------------------------------------

**************************************************************************************

Host: cfeld-pcx14803

Timers On : Fri Aug 13 11:50:38 2021
Timers Off: Fri Aug 13 11:50:40 2021

Wall Time:        2.46 seconds

                                                       Time (seconds)
Module                                       User      System        Wall        Calls

--------------------------------------------------------------------------------------

**************************************************************************************

Host: cfeld-pcx14803

Timers On : Fri Aug 13 11:50:59 2021
Timers Off: Fri Aug 13 11:51:02 2021

Wall Time:        3.50 seconds

                                                       Time (seconds)
Module                                       User      System        Wall        Calls

--------------------------------------------------------------------------------------

**************************************************************************************

Host: cfeld-pcx14803

Timers On : Fri Aug 13 11:51:15 2021
Timers Off: Fri Aug 13 11:51:18 2021

Wall Time:        2.99 seconds

                                                       Time (seconds)
Module                                       User      System        Wall        Calls

--------------------------------------------------------------------------------------

**************************************************************************************

Host: cfeld-pcx14803

Timers On : Fri Aug 13 11:52:23 2021
Timers Off: Fri Aug 13 11:52:26 2021

Wall Time:        3.50 seconds

                                                       Time (seconds)
Module                                       User      System        Wall        Calls

--------------------------------------------------------------------------------------

**************************************************************************************

Host: cfeld-pcx14803

Timers On : Fri Aug 13 11:53:52 2021
Timers Off: Fri Aug 13 11:53:55 2021

Wall Time:        3.51 seconds

                                                       Time (seconds)
Module                                       User      System        Wall        Calls

--------------------------------------------------------------------------------------

**************************************************************************************

Host: cfeld-pcx14803

Timers On : Fri Aug 13 11:57:46 2021
Timers Off: Fri Aug 13 11:57:50 2021

Wall Time:        3.88 seconds

                                                       Time (seconds)
Module                                       User      System        Wall        Calls

--------------------------------------------------------------------------------------

**************************************************************************************

Host: cfeld-pcx14803

Timers On : Fri Aug 13 12:00:15 2021
Timers Off: Fri Aug 13 12:00:18 2021

Wall Time:        3.29 seconds

                                                       Time (seconds)
Module                                       User      System        Wall        Calls

--------------------------------------------------------------------------------------

**************************************************************************************

Host: cfeld-pcx14803

Timers On : Fri Aug 13 12:01:20 2021
Timers Off: Fri Aug 13 12:01:24 2021

Wall Time:        3.95 seconds

                                                       Time (seconds)
Module                                       User      System        Wall        Calls

--------------------------------------------------------------------------------------

**************************************************************************************

Host: cfeld-pcx14803

Timers On : Fri Aug 13 12:01:49 2021
Timers Off: Fri Aug 13 12:01:51 2021

Wall Time:        2.53 seconds

                                                       Time (seconds)
Module                                       User      System        Wall        Calls

--------------------------------------------------------------------------------------

**************************************************************************************

Host: cfeld-pcx14803

Timers On : Fri Aug 13 12:08:20 2021
Timers Off: Fri Aug 13 12:09:09 2021

Wall Time:       48.74 seconds

                                                       Time (seconds)
Module                                       User      System        Wall        Calls

--------------------------------------------------------------------------------------

**************************************************************************************

Host: cfeld-pcx14803

Timers On : Fri Aug 13 12:10:51 2021
Timers Off: Fri Aug 13 12:13:03 2021

Wall Time:      131.42 seconds

                                                       Time (seconds)
Module                                       User      System        Wall        Calls

--------------------------------------------------------------------------------------

**************************************************************************************

Host: cfeld-pcx14803

Timers On : Fri Aug 13 13:26:16 2021
Timers Off: Fri Aug 13 13:26:30 2021

Wall Time:       14.61 seconds

                                                       Time (seconds)
Module                                       User      System        Wall        Calls

--------------------------------------------------------------------------------------

**************************************************************************************

Host: cfeld-pcx14803

Timers On : Fri Aug 13 13:29:08 2021
Timers Off: Fri Aug 13 13:29:32 2021

Wall Time:       23.52 seconds

                                                       Time (seconds)
Module                                       User      System        Wall        Calls

--------------------------------------------------------------------------------------

**************************************************************************************

Host: cfeld-pcx14803

Timers On : Fri Aug 13 13:31:10 2021
Timers Off: Fri Aug 13 13:34:27 2021

Wall Time:      197.19 seconds

                                                       Time (seconds)
Module                                       User      System        Wall        Calls

--------------------------------------------------------------------------------------

**************************************************************************************

Host: cfeld-pcx14803

Timers On : Fri Aug 13 13:43:29 2021
Timers Off: Fri Aug 13 13:45:54 2021

Wall Time:      145.06 seconds

                                                       Time (seconds)
Module                                       User      System        Wall        Calls

--------------------------------------------------------------------------------------

**************************************************************************************

Host: cfeld-pcx14803

Timers On : Fri Aug 13 13:47:11 2021
Timers Off: Fri Aug 13 13:47:20 2021

Wall Time:        9.55 seconds

                                                       Time (seconds)
Module                                       User      System        Wall        Calls

--------------------------------------------------------------------------------------

**************************************************************************************

Host: cfeld-pcx14803

Timers On : Fri Aug 13 13:50:18 2021
Timers Off: Fri Aug 13 13:52:03 2021

Wall Time:      104.34 seconds

                                                       Time (seconds)
Module                                       User      System        Wall        Calls

--------------------------------------------------------------------------------------

**************************************************************************************

Host: cfeld-pcx14803

Timers On : Fri Aug 13 14:06:17 2021
Timers Off: Fri Aug 13 14:07:51 2021

Wall Time:       94.22 seconds

                                                       Time (seconds)
Module                                       User      System        Wall        Calls

--------------------------------------------------------------------------------------

**************************************************************************************

Host: cfeld-pcx14803

Timers On : Fri Aug 13 14:12:38 2021
Timers Off: Fri Aug 13 14:14:23 2021

Wall Time:      104.93 seconds

                                                       Time (seconds)
Module                                       User      System        Wall        Calls

--------------------------------------------------------------------------------------

**************************************************************************************

Host: cfeld-pcx14803

Timers On : Fri Aug 13 14:17:09 2021
Timers Off: Fri Aug 13 14:18:56 2021

Wall Time:      106.96 seconds

                                                       Time (seconds)
Module                                       User      System        Wall        Calls

--------------------------------------------------------------------------------------

**************************************************************************************

Host: cfeld-pcx14803

Timers On : Fri Aug 13 14:25:02 2021
Timers Off: Fri Aug 13 14:26:02 2021

Wall Time:       59.92 seconds

                                                       Time (seconds)
Module                                       User      System        Wall        Calls

--------------------------------------------------------------------------------------

**************************************************************************************

Host: cfeld-pcx14803

Timers On : Fri Aug 13 14:30:51 2021
Timers Off: Fri Aug 13 14:32:24 2021

Wall Time:       93.70 seconds

                                                       Time (seconds)
Module                                       User      System        Wall        Calls

--------------------------------------------------------------------------------------

**************************************************************************************

Host: cfeld-pcx14803

Timers On : Fri Aug 13 14:35:08 2021
Timers Off: Fri Aug 13 14:36:41 2021

Wall Time:       92.94 seconds

                                                       Time (seconds)
Module                                       User      System        Wall        Calls

--------------------------------------------------------------------------------------

**************************************************************************************

Host: cfeld-pcx14803

Timers On : Fri Aug 13 14:47:10 2021
Timers Off: Fri Aug 13 14:47:37 2021

Wall Time:       26.69 seconds

                                                       Time (seconds)
Module                                       User      System        Wall        Calls

--------------------------------------------------------------------------------------

**************************************************************************************

Host: cfeld-pcx14803

Timers On : Fri Aug 13 14:51:18 2021
Timers Off: Fri Aug 13 14:51:31 2021

Wall Time:       12.88 seconds

                                                       Time (seconds)
Module                                       User      System        Wall        Calls

--------------------------------------------------------------------------------------

**************************************************************************************

Host: cfeld-pcx14803

Timers On : Fri Aug 13 14:52:53 2021
Timers Off: Fri Aug 13 14:53:26 2021

Wall Time:       32.86 seconds

                                                       Time (seconds)
Module                                       User      System        Wall        Calls

--------------------------------------------------------------------------------------

**************************************************************************************

Host: cfeld-pcx14803

Timers On : Fri Aug 13 14:55:00 2021
Timers Off: Fri Aug 13 14:55:19 2021

Wall Time:       18.72 seconds

                                                       Time (seconds)
Module                                       User      System        Wall        Calls

--------------------------------------------------------------------------------------

**************************************************************************************

Host: cfeld-pcx14803

Timers On : Fri Aug 13 14:56:53 2021
Timers Off: Fri Aug 13 14:57:26 2021

Wall Time:       33.55 seconds

                                                       Time (seconds)
Module                                       User      System        Wall        Calls

--------------------------------------------------------------------------------------

**************************************************************************************

Host: cfeld-pcx14803

Timers On : Fri Aug 13 15:01:32 2021
Timers Off: Fri Aug 13 15:02:05 2021

Wall Time:       33.25 seconds

                                                       Time (seconds)
Module                                       User      System        Wall        Calls

--------------------------------------------------------------------------------------

**************************************************************************************

Host: cfeld-pcx14803

Timers On : Fri Aug 13 15:03:25 2021
Timers Off: Fri Aug 13 15:04:34 2021

Wall Time:       68.99 seconds

                                                       Time (seconds)
Module                                       User      System        Wall        Calls

--------------------------------------------------------------------------------------

**************************************************************************************

Host: cfeld-pcx14803

Timers On : Fri Aug 13 15:14:05 2021
Timers Off: Fri Aug 13 15:14:08 2021

Wall Time:        3.24 seconds

                                                       Time (seconds)
Module                                       User      System        Wall        Calls

--------------------------------------------------------------------------------------

**************************************************************************************

Host: cfeld-pcx14803

Timers On : Fri Aug 13 15:15:28 2021
Timers Off: Fri Aug 13 15:15:30 2021

Wall Time:        2.04 seconds

                                                       Time (seconds)
Module                                       User      System        Wall        Calls

--------------------------------------------------------------------------------------

**************************************************************************************

Host: cfeld-pcx14803

Timers On : Fri Aug 13 15:21:08 2021
Timers Off: Fri Aug 13 15:22:10 2021

Wall Time:       62.83 seconds

                                                       Time (seconds)
Module                                       User      System        Wall        Calls

--------------------------------------------------------------------------------------

**************************************************************************************

Host: cfeld-pcx14803

Timers On : Fri Aug 13 15:26:45 2021
Timers Off: Fri Aug 13 15:28:17 2021

Wall Time:       91.70 seconds

                                                       Time (seconds)
Module                                       User      System        Wall        Calls

--------------------------------------------------------------------------------------

**************************************************************************************

Host: cfeld-pcx14803

Timers On : Fri Aug 13 15:34:17 2021
Timers Off: Fri Aug 13 15:34:53 2021

Wall Time:       36.32 seconds

                                                       Time (seconds)
Module                                       User      System        Wall        Calls

--------------------------------------------------------------------------------------

**************************************************************************************

Host: cfeld-pcx14803

Timers On : Fri Aug 13 15:45:00 2021
Timers Off: Fri Aug 13 15:45:29 2021

Wall Time:       28.74 seconds

                                                       Time (seconds)
Module                                       User      System        Wall        Calls

--------------------------------------------------------------------------------------

**************************************************************************************

Host: cfeld-pcx14803

Timers On : Fri Aug 13 15:48:59 2021
Timers Off: Fri Aug 13 15:49:28 2021

Wall Time:       29.53 seconds

                                                       Time (seconds)
Module                                       User      System        Wall        Calls

--------------------------------------------------------------------------------------

**************************************************************************************

Host: cfeld-pcx14803

Timers On : Fri Aug 13 15:52:11 2021
Timers Off: Fri Aug 13 15:52:41 2021

Wall Time:       29.10 seconds

                                                       Time (seconds)
Module                                       User      System        Wall        Calls

--------------------------------------------------------------------------------------

**************************************************************************************

Host: cfeld-pcx14803

Timers On : Fri Aug 13 15:54:12 2021
Timers Off: Fri Aug 13 15:54:41 2021

Wall Time:       29.19 seconds

                                                       Time (seconds)
Module                                       User      System        Wall        Calls

--------------------------------------------------------------------------------------

**************************************************************************************

Host: cfeld-pcx14803

Timers On : Fri Aug 13 15:57:08 2021
Timers Off: Fri Aug 13 16:00:05 2021

Wall Time:      176.81 seconds

                                                       Time (seconds)
Module                                       User      System        Wall        Calls

--------------------------------------------------------------------------------------

**************************************************************************************

Host: cfeld-pcx14803

Timers On : Fri Aug 13 16:01:57 2021
Timers Off: Fri Aug 13 16:04:30 2021

Wall Time:      153.38 seconds

                                                       Time (seconds)
Module                                       User      System        Wall        Calls

--------------------------------------------------------------------------------------

**************************************************************************************

Host: cfeld-pcx14803

Timers On : Fri Aug 13 16:05:58 2021
Timers Off: Fri Aug 13 16:08:24 2021

Wall Time:      145.89 seconds

                                                       Time (seconds)
Module                                       User      System        Wall        Calls

--------------------------------------------------------------------------------------

**************************************************************************************

Host: cfeld-pcx14803

Timers On : Fri Aug 13 16:19:10 2021
Timers Off: Fri Aug 13 16:28:25 2021

Wall Time:      555.48 seconds

                                                       Time (seconds)
Module                                       User      System        Wall        Calls

--------------------------------------------------------------------------------------

**************************************************************************************

Host: cfeld-pcx14803

Timers On : Fri Aug 13 16:28:31 2021
Timers Off: Fri Aug 13 16:29:41 2021

Wall Time:       70.39 seconds

                                                       Time (seconds)
Module                                       User      System        Wall        Calls

--------------------------------------------------------------------------------------

**************************************************************************************

Host: cfeld-pcx14803

Timers On : Fri Aug 13 16:32:04 2021
Timers Off: Fri Aug 13 16:32:41 2021

Wall Time:       36.60 seconds

                                                       Time (seconds)
Module                                       User      System        Wall        Calls

--------------------------------------------------------------------------------------

**************************************************************************************

Host: cfeld-pcx14803

Timers On : Fri Aug 13 16:37:35 2021
Timers Off: Fri Aug 13 16:37:58 2021

Wall Time:       23.10 seconds

                                                       Time (seconds)
Module                                       User      System        Wall        Calls

--------------------------------------------------------------------------------------

**************************************************************************************

Host: cfeld-pcx14803

Timers On : Sun Aug 15 10:34:41 2021
Timers Off: Sun Aug 15 10:34:55 2021

Wall Time:       14.02 seconds

                                                       Time (seconds)
Module                                       User      System        Wall        Calls

--------------------------------------------------------------------------------------

**************************************************************************************

Host: cfeld-pcx14803

Timers On : Sun Aug 15 10:36:29 2021
Timers Off: Sun Aug 15 10:36:45 2021

Wall Time:       16.70 seconds

                                                       Time (seconds)
Module                                       User      System        Wall        Calls

--------------------------------------------------------------------------------------

**************************************************************************************

Host: cfeld-pcx14803

Timers On : Sun Aug 15 10:39:35 2021
Timers Off: Sun Aug 15 10:40:53 2021

Wall Time:       78.71 seconds

                                                       Time (seconds)
Module                                       User      System        Wall        Calls

--------------------------------------------------------------------------------------

**************************************************************************************

Host: cfeld-pcx14803

Timers On : Sun Aug 15 10:46:23 2021
Timers Off: Sun Aug 15 10:47:40 2021

Wall Time:       77.53 seconds

                                                       Time (seconds)
Module                                       User      System        Wall        Calls

--------------------------------------------------------------------------------------

**************************************************************************************
