
Host: cfeld-pcx14803

Timers On : Fri Jul 30 09:52:57 2021
Timers Off: Fri Jul 30 09:52:59 2021

Wall Time:        1.88 seconds

                                                       Time (seconds)
Module                                       User      System        Wall        Calls

--------------------------------------------------------------------------------------

**************************************************************************************

Host: cfeld-pcx14803

Timers On : Fri Jul 30 09:53:18 2021
Timers Off: Fri Jul 30 09:54:02 2021

Wall Time:       43.85 seconds

                                                       Time (seconds)
Module                                       User      System        Wall        Calls

--------------------------------------------------------------------------------------

**************************************************************************************

Host: cfeld-pcx14803

Timers On : Fri Jul 30 09:54:08 2021
Timers Off: Fri Jul 30 09:54:22 2021

Wall Time:       14.02 seconds

                                                       Time (seconds)
Module                                       User      System        Wall        Calls

--------------------------------------------------------------------------------------

**************************************************************************************

Host: cfeld-pcx14803

Timers On : Fri Jul 30 09:54:52 2021
Timers Off: Fri Jul 30 09:55:06 2021

Wall Time:       13.27 seconds

                                                       Time (seconds)
Module                                       User      System        Wall        Calls

--------------------------------------------------------------------------------------

**************************************************************************************

Host: cfeld-pcx14803

Timers On : Fri Jul 30 09:55:14 2021
Timers Off: Fri Jul 30 09:55:28 2021

Wall Time:       14.56 seconds

                                                       Time (seconds)
Module                                       User      System        Wall        Calls

--------------------------------------------------------------------------------------

**************************************************************************************

Host: cfeld-pcx14803

Timers On : Fri Jul 30 09:55:58 2021
Timers Off: Fri Jul 30 09:56:46 2021

Wall Time:       48.10 seconds

                                                       Time (seconds)
Module                                       User      System        Wall        Calls

--------------------------------------------------------------------------------------

**************************************************************************************

Host: cfeld-pcx14803

Timers On : Fri Jul 30 10:12:36 2021
Timers Off: Fri Jul 30 10:12:38 2021

Wall Time:        2.08 seconds

                                                       Time (seconds)
Module                                       User      System        Wall        Calls

--------------------------------------------------------------------------------------

**************************************************************************************

Host: cfeld-pcx14803

Timers On : Fri Jul 30 10:13:02 2021
Timers Off: Fri Jul 30 10:16:23 2021

Wall Time:      201.56 seconds

                                                       Time (seconds)
Module                                       User      System        Wall        Calls

--------------------------------------------------------------------------------------

**************************************************************************************

Host: cfeld-pcx14803

Timers On : Fri Jul 30 12:13:27 2021
Timers Off: Fri Jul 30 12:13:29 2021

Wall Time:        1.80 seconds

                                                       Time (seconds)
Module                                       User      System        Wall        Calls

--------------------------------------------------------------------------------------

**************************************************************************************

Host: cfeld-pcx14803

Timers On : Fri Jul 30 12:14:20 2021
Timers Off: Fri Jul 30 12:14:21 2021

Wall Time:        1.08 seconds

                                                       Time (seconds)
Module                                       User      System        Wall        Calls

--------------------------------------------------------------------------------------

**************************************************************************************

Host: cfeld-pcx14803

Timers On : Fri Jul 30 12:14:53 2021
Timers Off: Fri Jul 30 12:14:55 2021

Wall Time:        1.47 seconds

                                                       Time (seconds)
Module                                       User      System        Wall        Calls

--------------------------------------------------------------------------------------

**************************************************************************************

Host: cfeld-pcx14803

Timers On : Fri Jul 30 12:15:22 2021
Timers Off: Fri Jul 30 12:15:23 2021

Wall Time:        1.39 seconds

                                                       Time (seconds)
Module                                       User      System        Wall        Calls

--------------------------------------------------------------------------------------

**************************************************************************************

Host: cfeld-pcx14803

Timers On : Fri Jul 30 12:15:57 2021
Timers Off: Fri Jul 30 12:16:09 2021

Wall Time:       11.93 seconds

                                                       Time (seconds)
Module                                       User      System        Wall        Calls

--------------------------------------------------------------------------------------

**************************************************************************************

Host: cfeld-pcx14803

Timers On : Fri Jul 30 12:17:21 2021
Timers Off: Fri Jul 30 12:17:31 2021

Wall Time:       10.27 seconds

                                                       Time (seconds)
Module                                       User      System        Wall        Calls

--------------------------------------------------------------------------------------

**************************************************************************************

Host: cfeld-pcx14803

Timers On : Fri Jul 30 12:18:16 2021
Timers Off: Fri Jul 30 12:18:22 2021

Wall Time:        5.87 seconds

                                                       Time (seconds)
Module                                       User      System        Wall        Calls

--------------------------------------------------------------------------------------

**************************************************************************************
