
Host: cfeld-pcx14803

Timers On : Mon Apr 12 15:16:37 2021
Timers Off: Mon Apr 12 15:16:38 2021

Wall Time:        1.52 seconds

                                                       Time (seconds)
Module                                       User      System        Wall        Calls

--------------------------------------------------------------------------------------

**************************************************************************************

Host: cfeld-pcx14803

Timers On : Mon Apr 12 15:17:19 2021
Timers Off: Mon Apr 12 15:17:20 2021

Wall Time:        1.00 seconds

                                                       Time (seconds)
Module                                       User      System        Wall        Calls

--------------------------------------------------------------------------------------

**************************************************************************************

Host: cfeld-pcx14803

Timers On : Mon Apr 12 15:18:13 2021
Timers Off: Mon Apr 12 15:18:15 2021

Wall Time:        1.62 seconds

                                                       Time (seconds)
Module                                       User      System        Wall        Calls

--------------------------------------------------------------------------------------

**************************************************************************************

Host: cfeld-pcx14803

Timers On : Mon Apr 12 17:06:18 2021
Timers Off: Mon Apr 12 17:06:24 2021

Wall Time:        5.53 seconds

                                                       Time (seconds)
Module                                       User      System        Wall        Calls

--------------------------------------------------------------------------------------

**************************************************************************************

Host: cfeld-pcx14803

Timers On : Mon Apr 12 17:06:35 2021
Timers Off: Mon Apr 12 17:06:38 2021

Wall Time:        3.31 seconds

                                                       Time (seconds)
Module                                       User      System        Wall        Calls

--------------------------------------------------------------------------------------

**************************************************************************************

Host: cfeld-pcx14803

Timers On : Mon Apr 12 17:06:48 2021
Timers Off: Mon Apr 12 17:06:52 2021

Wall Time:        3.45 seconds

                                                       Time (seconds)
Module                                       User      System        Wall        Calls

--------------------------------------------------------------------------------------

**************************************************************************************

Host: cfeld-pcx14803

Timers On : Mon Apr 12 17:07:13 2021
Timers Off: Mon Apr 12 17:07:15 2021

Wall Time:        1.47 seconds

                                                       Time (seconds)
Module                                       User      System        Wall        Calls

--------------------------------------------------------------------------------------

**************************************************************************************

Host: cfeld-pcx14803

Timers On : Mon Apr 12 17:07:31 2021
Timers Off: Mon Apr 12 17:09:41 2021

Wall Time:      130.29 seconds

                                                       Time (seconds)
Module                                       User      System        Wall        Calls

--------------------------------------------------------------------------------------

**************************************************************************************
