
Host: ezak

Timers On : Mon Sep 20 12:45:37 2021
Timers Off: Mon Sep 20 12:45:38 2021

Wall Time:        1.25 seconds

                                                       Time (seconds)
Module                                       User      System        Wall        Calls

--------------------------------------------------------------------------------------

**************************************************************************************

Host: ezak

Timers On : Mon Sep 20 13:11:02 2021
Timers Off: Mon Sep 20 13:25:13 2021

Wall Time:      851.09 seconds

                                                       Time (seconds)
Module                                       User      System        Wall        Calls

--------------------------------------------------------------------------------------

**************************************************************************************
