
Host: cfeld-pcx14803

Timers On : Fri Jul  9 15:16:44 2021
Timers Off: Fri Jul  9 15:16:56 2021

Wall Time:       12.01 seconds

                                                       Time (seconds)
Module                                       User      System        Wall        Calls

--------------------------------------------------------------------------------------

**************************************************************************************

Host: cfeld-pcx14803

Timers On : Fri Jul  9 15:17:17 2021
Timers Off: Fri Jul  9 15:17:27 2021

Wall Time:       10.83 seconds

                                                       Time (seconds)
Module                                       User      System        Wall        Calls

--------------------------------------------------------------------------------------

**************************************************************************************

Host: cfeld-pcx14803

Timers On : Fri Jul  9 15:17:44 2021
Timers Off: Fri Jul  9 15:17:55 2021

Wall Time:       10.12 seconds

                                                       Time (seconds)
Module                                       User      System        Wall        Calls

--------------------------------------------------------------------------------------

**************************************************************************************

Host: cfeld-pcx14803

Timers On : Sat Jul 10 15:30:24 2021
Timers Off: Sat Jul 10 15:30:36 2021

Wall Time:       11.64 seconds

                                                       Time (seconds)
Module                                       User      System        Wall        Calls

--------------------------------------------------------------------------------------

**************************************************************************************

Host: cfeld-pcx14803

Timers On : Sat Jul 10 15:33:35 2021
Timers Off: Sat Jul 10 15:33:41 2021

Wall Time:        5.58 seconds

                                                       Time (seconds)
Module                                       User      System        Wall        Calls

--------------------------------------------------------------------------------------

**************************************************************************************

Host: cfeld-pcx14803

Timers On : Sat Jul 10 15:33:58 2021
Timers Off: Sat Jul 10 15:34:03 2021

Wall Time:        5.61 seconds

                                                       Time (seconds)
Module                                       User      System        Wall        Calls

--------------------------------------------------------------------------------------

**************************************************************************************

Host: cfeld-pcx14803

Timers On : Sat Jul 10 15:34:50 2021
Timers Off: Sat Jul 10 15:34:57 2021

Wall Time:        6.80 seconds

                                                       Time (seconds)
Module                                       User      System        Wall        Calls

--------------------------------------------------------------------------------------

**************************************************************************************

Host: cfeld-pcx14803

Timers On : Sat Jul 10 15:49:24 2021
Timers Off: Sat Jul 10 15:49:31 2021

Wall Time:        6.83 seconds

                                                       Time (seconds)
Module                                       User      System        Wall        Calls

--------------------------------------------------------------------------------------

**************************************************************************************

Host: cfeld-pcx14803

Timers On : Sat Jul 10 15:49:56 2021
Timers Off: Sat Jul 10 15:50:03 2021

Wall Time:        6.54 seconds

                                                       Time (seconds)
Module                                       User      System        Wall        Calls

--------------------------------------------------------------------------------------

**************************************************************************************

Host: cfeld-pcx14803

Timers On : Sat Jul 10 15:50:17 2021
Timers Off: Sat Jul 10 15:50:21 2021

Wall Time:        3.85 seconds

                                                       Time (seconds)
Module                                       User      System        Wall        Calls

--------------------------------------------------------------------------------------

**************************************************************************************

Host: cfeld-pcx14803

Timers On : Sat Jul 10 15:50:35 2021
Timers Off: Sat Jul 10 15:50:38 2021

Wall Time:        3.54 seconds

                                                       Time (seconds)
Module                                       User      System        Wall        Calls

--------------------------------------------------------------------------------------

**************************************************************************************

Host: cfeld-pcx14803

Timers On : Sun Jul 11 09:37:41 2021
Timers Off: Sun Jul 11 09:37:46 2021

Wall Time:        4.56 seconds

                                                       Time (seconds)
Module                                       User      System        Wall        Calls

--------------------------------------------------------------------------------------

**************************************************************************************
