
Host: ezak

Timers On : Tue Sep 14 11:49:34 2021
Timers Off: Tue Sep 14 11:49:36 2021

Wall Time:        2.26 seconds

                                                       Time (seconds)
Module                                       User      System        Wall        Calls

--------------------------------------------------------------------------------------

**************************************************************************************
