
Host: ezak

Timers On : Mon Sep 20 12:45:59 2021
Timers Off: Mon Sep 20 12:46:00 2021

Wall Time:        0.92 seconds

                                                       Time (seconds)
Module                                       User      System        Wall        Calls

--------------------------------------------------------------------------------------

**************************************************************************************

Host: ezak

Timers On : Mon Sep 20 12:46:34 2021
Timers Off: Mon Sep 20 12:46:35 2021

Wall Time:        0.92 seconds

                                                       Time (seconds)
Module                                       User      System        Wall        Calls

--------------------------------------------------------------------------------------

**************************************************************************************
