
Host: ezak

Timers On : Mon Mar 28 21:12:30 2022
Timers Off: Mon Mar 28 21:12:32 2022

Wall Time:        2.09 seconds

                                                       Time (seconds)
Module                                       User      System        Wall        Calls

--------------------------------------------------------------------------------------

**************************************************************************************

Host: ezak

Timers On : Mon Mar 28 21:12:52 2022
Timers Off: Mon Mar 28 21:12:54 2022

Wall Time:        1.46 seconds

                                                       Time (seconds)
Module                                       User      System        Wall        Calls

--------------------------------------------------------------------------------------

**************************************************************************************

Host: ezak

Timers On : Mon Mar 28 22:15:56 2022
Timers Off: Mon Mar 28 22:15:58 2022

Wall Time:        1.56 seconds

                                                       Time (seconds)
Module                                       User      System        Wall        Calls

--------------------------------------------------------------------------------------

**************************************************************************************

Host: ezak

Timers On : Mon Mar 28 22:16:17 2022
Timers Off: Mon Mar 28 22:16:19 2022

Wall Time:        1.51 seconds

                                                       Time (seconds)
Module                                       User      System        Wall        Calls

--------------------------------------------------------------------------------------

**************************************************************************************

Host: ezak

Timers On : Mon Mar 28 22:21:13 2022
Timers Off: Mon Mar 28 22:21:15 2022

Wall Time:        1.53 seconds

                                                       Time (seconds)
Module                                       User      System        Wall        Calls

--------------------------------------------------------------------------------------

**************************************************************************************
