
Host: ezak

Timers On : Tue Sep 14 16:23:08 2021
Timers Off: Tue Sep 14 16:24:24 2021

Wall Time:       75.80 seconds

                                                       Time (seconds)
Module                                       User      System        Wall        Calls

--------------------------------------------------------------------------------------

**************************************************************************************
