
Host: ezak

Timers On : Tue Sep 14 14:54:39 2021
Timers Off: Tue Sep 14 14:55:59 2021

Wall Time:       80.10 seconds

                                                       Time (seconds)
Module                                       User      System        Wall        Calls

--------------------------------------------------------------------------------------

**************************************************************************************
