
Host: ezak

Timers On : Tue Sep 14 14:54:39 2021
Timers Off: Tue Sep 14 14:55:59 2021

Wall Time:       80.10 seconds

                                                       Time (seconds)
Module                                       User      System        Wall        Calls

--------------------------------------------------------------------------------------

**************************************************************************************

Host: ezak

Timers On : Tue Sep 14 15:01:22 2021
Timers Off: Tue Sep 14 15:01:30 2021

Wall Time:        8.02 seconds

                                                       Time (seconds)
Module                                       User      System        Wall        Calls

--------------------------------------------------------------------------------------

**************************************************************************************

Host: ezak

Timers On : Tue Sep 14 15:10:16 2021
Timers Off: Tue Sep 14 15:10:24 2021

Wall Time:        7.70 seconds

                                                       Time (seconds)
Module                                       User      System        Wall        Calls

--------------------------------------------------------------------------------------

**************************************************************************************

Host: ezak

Timers On : Tue Sep 14 15:13:34 2021
Timers Off: Tue Sep 14 15:14:55 2021

Wall Time:       80.51 seconds

                                                       Time (seconds)
Module                                       User      System        Wall        Calls

--------------------------------------------------------------------------------------

**************************************************************************************

Host: ezak

Timers On : Tue Sep 14 15:17:51 2021
Timers Off: Tue Sep 14 15:19:12 2021

Wall Time:       80.75 seconds

                                                       Time (seconds)
Module                                       User      System        Wall        Calls

--------------------------------------------------------------------------------------

**************************************************************************************

Host: ezak

Timers On : Tue Sep 14 15:32:44 2021
Timers Off: Tue Sep 14 15:32:51 2021

Wall Time:        7.75 seconds

                                                       Time (seconds)
Module                                       User      System        Wall        Calls

--------------------------------------------------------------------------------------

**************************************************************************************

Host: ezak

Timers On : Tue Sep 14 15:34:08 2021
Timers Off: Tue Sep 14 15:34:16 2021

Wall Time:        7.70 seconds

                                                       Time (seconds)
Module                                       User      System        Wall        Calls

--------------------------------------------------------------------------------------

**************************************************************************************

Host: ezak

Timers On : Tue Sep 14 15:49:58 2021
Timers Off: Tue Sep 14 15:50:06 2021

Wall Time:        7.47 seconds

                                                       Time (seconds)
Module                                       User      System        Wall        Calls

--------------------------------------------------------------------------------------

**************************************************************************************

Host: ezak

Timers On : Tue Sep 14 15:50:57 2021
Timers Off: Tue Sep 14 15:51:05 2021

Wall Time:        7.75 seconds

                                                       Time (seconds)
Module                                       User      System        Wall        Calls

--------------------------------------------------------------------------------------

**************************************************************************************

Host: ezak

Timers On : Tue Sep 14 15:51:30 2021
Timers Off: Tue Sep 14 15:52:47 2021

Wall Time:       77.10 seconds

                                                       Time (seconds)
Module                                       User      System        Wall        Calls

--------------------------------------------------------------------------------------

**************************************************************************************

Host: ezak

Timers On : Tue Sep 14 15:53:30 2021
Timers Off: Tue Sep 14 15:53:55 2021

Wall Time:       25.19 seconds

                                                       Time (seconds)
Module                                       User      System        Wall        Calls

--------------------------------------------------------------------------------------

**************************************************************************************

Host: ezak

Timers On : Tue Sep 14 15:55:07 2021
Timers Off: Tue Sep 14 15:55:32 2021

Wall Time:       25.33 seconds

                                                       Time (seconds)
Module                                       User      System        Wall        Calls

--------------------------------------------------------------------------------------

**************************************************************************************

Host: ezak

Timers On : Tue Sep 14 15:55:46 2021
Timers Off: Tue Sep 14 15:57:29 2021

Wall Time:      102.40 seconds

                                                       Time (seconds)
Module                                       User      System        Wall        Calls

--------------------------------------------------------------------------------------

**************************************************************************************
