
Host: cfeld-pcx14803

Timers On : Mon Jun 14 14:56:50 2021
Timers Off: Mon Jun 14 14:56:57 2021

Wall Time:        7.44 seconds

                                                       Time (seconds)
Module                                       User      System        Wall        Calls

--------------------------------------------------------------------------------------

**************************************************************************************
