
Host: ezak

Timers On : Mon Sep 20 08:57:11 2021
Timers Off: Mon Sep 20 08:57:25 2021

Wall Time:       14.89 seconds

                                                       Time (seconds)
Module                                       User      System        Wall        Calls

--------------------------------------------------------------------------------------

**************************************************************************************

Host: ezak

Timers On : Mon Sep 20 09:04:10 2021
Timers Off: Mon Sep 20 09:04:51 2021

Wall Time:       41.42 seconds

                                                       Time (seconds)
Module                                       User      System        Wall        Calls

--------------------------------------------------------------------------------------

**************************************************************************************
