
Host: max-cfel027.desy.de

Timers On : Tue Jun  1 21:26:30 2021
Timers Off: Tue Jun  1 21:26:34 2021

Wall Time:        4.45 seconds

                                                       Time (seconds)
Module                                       User      System        Wall        Calls

--------------------------------------------------------------------------------------

**************************************************************************************
