
Host: max-cfel027.desy.de

Timers On : Tue Jun  1 21:26:30 2021
Timers Off: Tue Jun  1 21:26:34 2021

Wall Time:        4.45 seconds

                                                       Time (seconds)
Module                                       User      System        Wall        Calls

--------------------------------------------------------------------------------------

**************************************************************************************

Host: max-cfel022.desy.de

Timers On : Wed Jun  2 09:41:19 2021
Timers Off: Wed Jun  2 09:43:13 2021

Wall Time:      114.45 seconds

                                                       Time (seconds)
Module                                       User      System        Wall        Calls

--------------------------------------------------------------------------------------

**************************************************************************************

Host: max-cfel021.desy.de

Timers On : Wed Jun  2 09:41:19 2021
Timers Off: Wed Jun  2 09:43:14 2021

Wall Time:      115.03 seconds

                                                       Time (seconds)
Module                                       User      System        Wall        Calls

--------------------------------------------------------------------------------------

**************************************************************************************

Host: max-cfel023.desy.de

Timers On : Wed Jun  2 09:41:26 2021
Timers Off: Wed Jun  2 09:43:29 2021

Wall Time:      123.27 seconds

                                                       Time (seconds)
Module                                       User      System        Wall        Calls

--------------------------------------------------------------------------------------

**************************************************************************************

Host: max-cfel021.desy.de

Timers On : Wed Jun  2 09:53:27 2021
Timers Off: Wed Jun  2 09:53:48 2021

Wall Time:       20.46 seconds

                                                       Time (seconds)
Module                                       User      System        Wall        Calls

--------------------------------------------------------------------------------------

**************************************************************************************

Host: max-cfel022.desy.de

Timers On : Wed Jun  2 09:53:27 2021
Timers Off: Wed Jun  2 09:53:48 2021

Wall Time:       20.50 seconds

                                                       Time (seconds)
Module                                       User      System        Wall        Calls

--------------------------------------------------------------------------------------

**************************************************************************************

Host: max-cfel023.desy.de

Timers On : Wed Jun  2 09:53:30 2021
Timers Off: Wed Jun  2 09:53:50 2021

Wall Time:       20.55 seconds

                                                       Time (seconds)
Module                                       User      System        Wall        Calls

--------------------------------------------------------------------------------------

**************************************************************************************

Host: max-cfel021.desy.de

Timers On : Wed Jun  2 10:18:09 2021
Timers Off: Wed Jun  2 10:18:30 2021

Wall Time:       20.44 seconds

                                                       Time (seconds)
Module                                       User      System        Wall        Calls

--------------------------------------------------------------------------------------

**************************************************************************************

Host: max-cfel022.desy.de

Timers On : Wed Jun  2 10:18:09 2021
Timers Off: Wed Jun  2 10:18:30 2021

Wall Time:       20.49 seconds

                                                       Time (seconds)
Module                                       User      System        Wall        Calls

--------------------------------------------------------------------------------------

**************************************************************************************

Host: max-cfel023.desy.de

Timers On : Wed Jun  2 10:18:09 2021
Timers Off: Wed Jun  2 10:18:30 2021

Wall Time:       20.59 seconds

                                                       Time (seconds)
Module                                       User      System        Wall        Calls

--------------------------------------------------------------------------------------

**************************************************************************************

Host: max-cfel023.desy.de

Timers On : Wed Jun  2 10:21:16 2021
Timers Off: Wed Jun  2 10:21:36 2021

Wall Time:       20.46 seconds

                                                       Time (seconds)
Module                                       User      System        Wall        Calls

--------------------------------------------------------------------------------------

**************************************************************************************

Host: max-cfel021.desy.de

Timers On : Wed Jun  2 10:21:16 2021
Timers Off: Wed Jun  2 10:21:37 2021

Wall Time:       20.51 seconds

                                                       Time (seconds)
Module                                       User      System        Wall        Calls

--------------------------------------------------------------------------------------

**************************************************************************************

Host: max-cfel022.desy.de

Timers On : Wed Jun  2 10:21:16 2021
Timers Off: Wed Jun  2 10:21:37 2021

Wall Time:       20.54 seconds

                                                       Time (seconds)
Module                                       User      System        Wall        Calls

--------------------------------------------------------------------------------------

**************************************************************************************
