
Host: cfeld-pcx14803

Timers On : Tue Jun 15 15:37:42 2021
Timers Off: Tue Jun 15 15:37:52 2021

Wall Time:       10.02 seconds

                                                       Time (seconds)
Module                                       User      System        Wall        Calls

--------------------------------------------------------------------------------------

**************************************************************************************
