
Host: ezak

Timers On : Tue Sep 14 16:24:25 2021
Timers Off: Tue Sep 14 16:25:53 2021

Wall Time:       87.38 seconds

                                                       Time (seconds)
Module                                       User      System        Wall        Calls

--------------------------------------------------------------------------------------

**************************************************************************************
