
Host: ezak

Timers On : Wed Sep 15 08:29:09 2021
Timers Off: Wed Sep 15 08:31:54 2021

Wall Time:      165.53 seconds

                                                       Time (seconds)
Module                                       User      System        Wall        Calls

--------------------------------------------------------------------------------------

**************************************************************************************

Host: ezak

Timers On : Wed Sep 15 08:36:16 2021
Timers Off: Wed Sep 15 08:39:09 2021

Wall Time:      172.90 seconds

                                                       Time (seconds)
Module                                       User      System        Wall        Calls

--------------------------------------------------------------------------------------

**************************************************************************************
