
Host: cfeld-pcx14803

Timers On : Tue Jun 15 14:58:39 2021
Timers Off: Tue Jun 15 14:58:46 2021

Wall Time:        7.09 seconds

                                                       Time (seconds)
Module                                       User      System        Wall        Calls

--------------------------------------------------------------------------------------

**************************************************************************************

Host: cfeld-pcx14803

Timers On : Tue Jun 15 15:03:03 2021
Timers Off: Tue Jun 15 15:03:09 2021

Wall Time:        6.45 seconds

                                                       Time (seconds)
Module                                       User      System        Wall        Calls

--------------------------------------------------------------------------------------

**************************************************************************************
