
Host: ezak

Timers On : Tue Sep 14 16:10:19 2021
Timers Off: Tue Sep 14 16:11:16 2021

Wall Time:       56.97 seconds

                                                       Time (seconds)
Module                                       User      System        Wall        Calls

--------------------------------------------------------------------------------------

**************************************************************************************
