
Host: cfeld-pcx14803

Timers On : Tue Jun 15 16:01:57 2021
Timers Off: Tue Jun 15 16:02:03 2021

Wall Time:        6.44 seconds

                                                       Time (seconds)
Module                                       User      System        Wall        Calls

--------------------------------------------------------------------------------------

**************************************************************************************
