
Host: ezak

Timers On : Tue Sep 14 16:20:35 2021
Timers Off: Tue Sep 14 16:21:50 2021

Wall Time:       74.89 seconds

                                                       Time (seconds)
Module                                       User      System        Wall        Calls

--------------------------------------------------------------------------------------

**************************************************************************************
