
Host: cfeld-pcx14803

Timers On : Sat Jul 10 15:58:50 2021
Timers Off: Sat Jul 10 15:59:54 2021

Wall Time:       64.10 seconds

                                                       Time (seconds)
Module                                       User      System        Wall        Calls
DFH: sparsity prep                  :      0.417u      0.033s      0.311w     96 calls
Libint2ERI::Libint2ERI              :      0.433u      0.033s      0.297w    288 calls
DFH: initialize()                   :      2.733u      0.650s      2.073w     96 calls
DFH: AO Construction                :      0.450u      0.033s      0.272w     96 calls
DFH: AO-Met. Contraction            :      0.350u      0.050s      0.186w     96 calls
HF: Form core H                     :      0.150u      0.050s      0.185w     96 calls
HF: Form S/X                        :      0.033u      0.000s      0.014w     96 calls
HF: Guess                           :      2.083u      0.467s      1.505w     96 calls
SAD Guess                           :      1.800u      0.467s      1.378w     96 calls
HF: Form G                          :      1.350u      0.000s      0.835w    864 calls
JK: D                               :      0.033u      0.000s      0.013w    864 calls
JK: USO2AO                          :      0.100u      0.000s      0.048w    864 calls
JK: JK                              :      1.083u      0.000s      0.698w    864 calls
DFH: compute_JK()                   :      1.083u      0.000s      0.694w    864 calls
DFH: Grabbing AOs                   :      0.000u      0.000s      0.001w    864 calls
DFH: compute_J                      :      0.217u      0.000s      0.149w    864 calls
DFH: compute_K                      :      0.850u      0.000s      0.525w    864 calls
JK: AO2USO                          :      0.083u      0.000s      0.048w    864 calls
HF: Form F                          :      0.000u      0.000s      0.008w    864 calls
HF: Form D                          :      0.033u      0.000s      0.016w    864 calls
HF: DIIS                            :      0.617u      0.083s      0.546w    768 calls
DIISManager::add_entry              :      0.050u      0.083s      0.085w    768 calls
DIISManager::extrapolate            :      0.033u      0.000s      0.057w    768 calls
bMatrix setup                       :      0.000u      0.000s      0.021w    768 calls
bMatrix pseudoinverse               :      0.000u      0.000s      0.016w    768 calls
New vector                          :      0.033u      0.000s      0.014w    768 calls
HF: Form C                          :      0.017u      0.000s      0.067w    768 calls

--------------------------------------------------------------------------------------
DFH: sparsity prep                  :      0.417u      0.033s      0.311w     96 calls
| Libint2ERI::Libint2ERI            :      0.217u      0.033s      0.170w     96 calls
DFH: initialize()                   :      2.733u      0.650s      2.073w     96 calls
| Libint2ERI::Libint2ERI            :      0.217u      0.000s      0.127w    192 calls
| DFH: AO Construction              :      0.450u      0.033s      0.272w     96 calls
| DFH: AO-Met. Contraction          :      0.350u      0.050s      0.186w     96 calls
HF: Form core H                     :      0.150u      0.050s      0.185w     96 calls
HF: Form S/X                        :      0.033u      0.000s      0.014w     96 calls
HF: Guess                           :      2.083u      0.467s      1.505w     96 calls
| SAD Guess                         :      1.800u      0.467s      1.378w     96 calls
HF: Form G                          :      1.350u      0.000s      0.835w    864 calls
| JK: D                             :      0.033u      0.000s      0.013w    864 calls
| JK: USO2AO                        :      0.100u      0.000s      0.048w    864 calls
| JK: JK                            :      1.083u      0.000s      0.698w    864 calls
| | DFH: compute_JK()               :      1.083u      0.000s      0.694w    864 calls
| | | DFH: Grabbing AOs             :      0.000u      0.000s      0.001w    864 calls
| | | DFH: compute_J                :      0.217u      0.000s      0.149w    864 calls
| | | DFH: compute_K                :      0.850u      0.000s      0.525w    864 calls
| JK: AO2USO                        :      0.083u      0.000s      0.048w    864 calls
HF: Form F                          :      0.000u      0.000s      0.008w    864 calls
HF: Form D                          :      0.033u      0.000s      0.016w    864 calls
HF: DIIS                            :      0.617u      0.083s      0.546w    768 calls
| DIISManager::add_entry            :      0.050u      0.083s      0.085w    768 calls
| DIISManager::extrapolate          :      0.033u      0.000s      0.057w    768 calls
| | bMatrix setup                   :      0.000u      0.000s      0.021w    768 calls
| | bMatrix pseudoinverse           :      0.000u      0.000s      0.016w    768 calls
| | New vector                      :      0.033u      0.000s      0.014w    768 calls
HF: Form C                          :      0.017u      0.000s      0.067w    768 calls

**************************************************************************************

Host: cfeld-pcx14803

Timers On : Sat Jul 10 16:02:17 2021
Timers Off: Sat Jul 10 16:03:04 2021

Wall Time:       46.94 seconds

                                                       Time (seconds)
Module                                       User      System        Wall        Calls
DFH: sparsity prep                  :      0.017u      0.017s      0.031w      1 calls
Libint2ERI::Libint2ERI              :      0.017u      0.017s      0.031w      3 calls
DFH: initialize()                   :      0.033u      0.017s      0.029w      1 calls
DFH: AO Construction                :      0.000u      0.000s      0.007w      1 calls
DFH: AO-Met. Contraction            :      0.017u      0.000s      0.002w      1 calls
HF: Form core H                     :      0.000u      0.000s      0.004w      1 calls
HF: Form S/X                        :      0.000u      0.000s      0.000w      1 calls
HF: Guess                           :      0.017u      0.000s      0.023w      1 calls
SAD Guess                           :      0.017u      0.000s      0.021w      1 calls
HF: Form G                          :      0.033u      0.000s      0.008w      9 calls
JK: D                               :      0.000u      0.000s      0.000w      9 calls
JK: USO2AO                          :      0.000u      0.000s      0.000w      9 calls
JK: JK                              :      0.033u      0.000s      0.007w      9 calls
DFH: compute_JK()                   :      0.033u      0.000s      0.007w      9 calls
DFH: Grabbing AOs                   :      0.000u      0.000s      0.000w      9 calls
DFH: compute_J                      :      0.000u      0.000s      0.001w      9 calls
DFH: compute_K                      :      0.033u      0.000s      0.005w      9 calls
JK: AO2USO                          :      0.000u      0.000s      0.000w      9 calls
HF: Form F                          :      0.000u      0.000s      0.001w      9 calls
HF: Form D                          :      0.000u      0.000s      0.000w      9 calls
HF: DIIS                            :      0.000u      0.000s      0.006w      8 calls
DIISManager::add_entry              :      0.000u      0.000s      0.001w      8 calls
DIISManager::extrapolate            :      0.000u      0.000s      0.001w      8 calls
bMatrix setup                       :      0.000u      0.000s      0.000w      8 calls
bMatrix pseudoinverse               :      0.000u      0.000s      0.000w      8 calls
New vector                          :      0.000u      0.000s      0.000w      8 calls
HF: Form C                          :      0.000u      0.000s      0.001w      8 calls

--------------------------------------------------------------------------------------
DFH: sparsity prep                  :      0.017u      0.017s      0.031w      1 calls
| Libint2ERI::Libint2ERI            :      0.017u      0.017s      0.029w      1 calls
DFH: initialize()                   :      0.033u      0.017s      0.029w      1 calls
| Libint2ERI::Libint2ERI            :      0.000u      0.000s      0.002w      2 calls
| DFH: AO Construction              :      0.000u      0.000s      0.007w      1 calls
| DFH: AO-Met. Contraction          :      0.017u      0.000s      0.002w      1 calls
HF: Form core H                     :      0.000u      0.000s      0.004w      1 calls
HF: Form S/X                        :      0.000u      0.000s      0.000w      1 calls
HF: Guess                           :      0.017u      0.000s      0.023w      1 calls
| SAD Guess                         :      0.017u      0.000s      0.021w      1 calls
HF: Form G                          :      0.033u      0.000s      0.008w      9 calls
| JK: D                             :      0.000u      0.000s      0.000w      9 calls
| JK: USO2AO                        :      0.000u      0.000s      0.000w      9 calls
| JK: JK                            :      0.033u      0.000s      0.007w      9 calls
| | DFH: compute_JK()               :      0.033u      0.000s      0.007w      9 calls
| | | DFH: Grabbing AOs             :      0.000u      0.000s      0.000w      9 calls
| | | DFH: compute_J                :      0.000u      0.000s      0.001w      9 calls
| | | DFH: compute_K                :      0.033u      0.000s      0.005w      9 calls
| JK: AO2USO                        :      0.000u      0.000s      0.000w      9 calls
HF: Form F                          :      0.000u      0.000s      0.001w      9 calls
HF: Form D                          :      0.000u      0.000s      0.000w      9 calls
HF: DIIS                            :      0.000u      0.000s      0.006w      8 calls
| DIISManager::add_entry            :      0.000u      0.000s      0.001w      8 calls
| DIISManager::extrapolate          :      0.000u      0.000s      0.001w      8 calls
| | bMatrix setup                   :      0.000u      0.000s      0.000w      8 calls
| | bMatrix pseudoinverse           :      0.000u      0.000s      0.000w      8 calls
| | New vector                      :      0.000u      0.000s      0.000w      8 calls
HF: Form C                          :      0.000u      0.000s      0.001w      8 calls

**************************************************************************************

Host: cfeld-pcx14803

Timers On : Sat Jul 10 16:08:07 2021
Timers Off: Sat Jul 10 16:08:49 2021

Wall Time:       41.52 seconds

                                                       Time (seconds)
Module                                       User      System        Wall        Calls
DFH: sparsity prep                  :      0.000u      0.017s      0.025w      1 calls
Libint2ERI::Libint2ERI              :      0.000u      0.017s      0.022w      3 calls
DFH: initialize()                   :      0.033u      0.000s      0.035w      1 calls
DFH: AO Construction                :      0.000u      0.000s      0.011w      1 calls
DFH: AO-Met. Contraction            :      0.000u      0.000s      0.003w      1 calls
HF: Form core H                     :      0.017u      0.000s      0.006w      1 calls
HF: Form S/X                        :      0.000u      0.000s      0.003w      1 calls
HF: Guess                           :      0.017u      0.017s      0.026w      1 calls
SAD Guess                           :      0.017u      0.000s      0.023w      1 calls
HF: Form G                          :      0.017u      0.000s      0.009w      9 calls
JK: D                               :      0.000u      0.000s      0.000w      9 calls
JK: USO2AO                          :      0.000u      0.000s      0.000w      9 calls
JK: JK                              :      0.017u      0.000s      0.007w      9 calls
DFH: compute_JK()                   :      0.017u      0.000s      0.007w      9 calls
DFH: Grabbing AOs                   :      0.000u      0.000s      0.000w      9 calls
DFH: compute_J                      :      0.000u      0.000s      0.001w      9 calls
DFH: compute_K                      :      0.017u      0.000s      0.006w      9 calls
JK: AO2USO                          :      0.000u      0.000s      0.000w      9 calls
HF: Form F                          :      0.000u      0.000s      0.000w      9 calls
HF: Form D                          :      0.000u      0.000s      0.000w      9 calls
HF: DIIS                            :      0.017u      0.000s      0.007w      8 calls
DIISManager::add_entry              :      0.000u      0.000s      0.001w      8 calls
DIISManager::extrapolate            :      0.000u      0.000s      0.001w      8 calls
bMatrix setup                       :      0.000u      0.000s      0.000w      8 calls
bMatrix pseudoinverse               :      0.000u      0.000s      0.000w      8 calls
New vector                          :      0.000u      0.000s      0.000w      8 calls
HF: Form C                          :      0.017u      0.000s      0.001w      8 calls

--------------------------------------------------------------------------------------
DFH: sparsity prep                  :      0.000u      0.017s      0.025w      1 calls
| Libint2ERI::Libint2ERI            :      0.000u      0.017s      0.020w      1 calls
DFH: initialize()                   :      0.033u      0.000s      0.035w      1 calls
| Libint2ERI::Libint2ERI            :      0.000u      0.000s      0.002w      2 calls
| DFH: AO Construction              :      0.000u      0.000s      0.011w      1 calls
| DFH: AO-Met. Contraction          :      0.000u      0.000s      0.003w      1 calls
HF: Form core H                     :      0.017u      0.000s      0.006w      1 calls
HF: Form S/X                        :      0.000u      0.000s      0.003w      1 calls
HF: Guess                           :      0.017u      0.017s      0.026w      1 calls
| SAD Guess                         :      0.017u      0.000s      0.023w      1 calls
HF: Form G                          :      0.017u      0.000s      0.009w      9 calls
| JK: D                             :      0.000u      0.000s      0.000w      9 calls
| JK: USO2AO                        :      0.000u      0.000s      0.000w      9 calls
| JK: JK                            :      0.017u      0.000s      0.007w      9 calls
| | DFH: compute_JK()               :      0.017u      0.000s      0.007w      9 calls
| | | DFH: Grabbing AOs             :      0.000u      0.000s      0.000w      9 calls
| | | DFH: compute_J                :      0.000u      0.000s      0.001w      9 calls
| | | DFH: compute_K                :      0.017u      0.000s      0.006w      9 calls
| JK: AO2USO                        :      0.000u      0.000s      0.000w      9 calls
HF: Form F                          :      0.000u      0.000s      0.000w      9 calls
HF: Form D                          :      0.000u      0.000s      0.000w      9 calls
HF: DIIS                            :      0.017u      0.000s      0.007w      8 calls
| DIISManager::add_entry            :      0.000u      0.000s      0.001w      8 calls
| DIISManager::extrapolate          :      0.000u      0.000s      0.001w      8 calls
| | bMatrix setup                   :      0.000u      0.000s      0.000w      8 calls
| | bMatrix pseudoinverse           :      0.000u      0.000s      0.000w      8 calls
| | New vector                      :      0.000u      0.000s      0.000w      8 calls
HF: Form C                          :      0.017u      0.000s      0.001w      8 calls

**************************************************************************************

Host: cfeld-pcx14803

Timers On : Sat Jul 10 16:09:39 2021
Timers Off: Sat Jul 10 16:10:17 2021

Wall Time:       38.16 seconds

                                                       Time (seconds)
Module                                       User      System        Wall        Calls
DFH: sparsity prep                  :      0.000u      0.000s      0.005w      1 calls
Libint2ERI::Libint2ERI              :      0.017u      0.000s      0.005w      3 calls
DFH: initialize()                   :      0.033u      0.000s      0.019w      1 calls
DFH: AO Construction                :      0.017u      0.000s      0.003w      1 calls
DFH: AO-Met. Contraction            :      0.000u      0.000s      0.001w      1 calls
HF: Form core H                     :      0.000u      0.000s      0.002w      1 calls
HF: Form S/X                        :      0.000u      0.000s      0.000w      1 calls
HF: Guess                           :      0.017u      0.017s      0.016w      1 calls
SAD Guess                           :      0.017u      0.017s      0.015w      1 calls
HF: Form G                          :      0.017u      0.000s      0.008w      9 calls
JK: D                               :      0.000u      0.000s      0.000w      9 calls
JK: USO2AO                          :      0.000u      0.000s      0.000w      9 calls
JK: JK                              :      0.017u      0.000s      0.007w      9 calls
DFH: compute_JK()                   :      0.017u      0.000s      0.007w      9 calls
DFH: Grabbing AOs                   :      0.000u      0.000s      0.000w      9 calls
DFH: compute_J                      :      0.000u      0.000s      0.001w      9 calls
DFH: compute_K                      :      0.017u      0.000s      0.005w      9 calls
JK: AO2USO                          :      0.000u      0.000s      0.000w      9 calls
HF: Form F                          :      0.000u      0.000s      0.000w      9 calls
HF: Form D                          :      0.000u      0.000s      0.000w      9 calls
HF: DIIS                            :      0.000u      0.000s      0.005w      8 calls
DIISManager::add_entry              :      0.000u      0.000s      0.001w      8 calls
DIISManager::extrapolate            :      0.000u      0.000s      0.001w      8 calls
bMatrix setup                       :      0.000u      0.000s      0.000w      8 calls
bMatrix pseudoinverse               :      0.000u      0.000s      0.000w      8 calls
New vector                          :      0.000u      0.000s      0.000w      8 calls
HF: Form C                          :      0.000u      0.000s      0.001w      8 calls

--------------------------------------------------------------------------------------
DFH: sparsity prep                  :      0.000u      0.000s      0.005w      1 calls
| Libint2ERI::Libint2ERI            :      0.000u      0.000s      0.004w      1 calls
DFH: initialize()                   :      0.033u      0.000s      0.019w      1 calls
| Libint2ERI::Libint2ERI            :      0.017u      0.000s      0.002w      2 calls
| DFH: AO Construction              :      0.017u      0.000s      0.003w      1 calls
| DFH: AO-Met. Contraction          :      0.000u      0.000s      0.001w      1 calls
HF: Form core H                     :      0.000u      0.000s      0.002w      1 calls
HF: Form S/X                        :      0.000u      0.000s      0.000w      1 calls
HF: Guess                           :      0.017u      0.017s      0.016w      1 calls
| SAD Guess                         :      0.017u      0.017s      0.015w      1 calls
HF: Form G                          :      0.017u      0.000s      0.008w      9 calls
| JK: D                             :      0.000u      0.000s      0.000w      9 calls
| JK: USO2AO                        :      0.000u      0.000s      0.000w      9 calls
| JK: JK                            :      0.017u      0.000s      0.007w      9 calls
| | DFH: compute_JK()               :      0.017u      0.000s      0.007w      9 calls
| | | DFH: Grabbing AOs             :      0.000u      0.000s      0.000w      9 calls
| | | DFH: compute_J                :      0.000u      0.000s      0.001w      9 calls
| | | DFH: compute_K                :      0.017u      0.000s      0.005w      9 calls
| JK: AO2USO                        :      0.000u      0.000s      0.000w      9 calls
HF: Form F                          :      0.000u      0.000s      0.000w      9 calls
HF: Form D                          :      0.000u      0.000s      0.000w      9 calls
HF: DIIS                            :      0.000u      0.000s      0.005w      8 calls
| DIISManager::add_entry            :      0.000u      0.000s      0.001w      8 calls
| DIISManager::extrapolate          :      0.000u      0.000s      0.001w      8 calls
| | bMatrix setup                   :      0.000u      0.000s      0.000w      8 calls
| | bMatrix pseudoinverse           :      0.000u      0.000s      0.000w      8 calls
| | New vector                      :      0.000u      0.000s      0.000w      8 calls
HF: Form C                          :      0.000u      0.000s      0.001w      8 calls

**************************************************************************************

Host: cfeld-pcx14803

Timers On : Sat Jul 10 16:34:47 2021
Timers Off: Sat Jul 10 16:35:27 2021

Wall Time:       39.94 seconds

                                                       Time (seconds)
Module                                       User      System        Wall        Calls
DFH: sparsity prep                  :      0.017u      0.017s      0.039w      1 calls
Libint2ERI::Libint2ERI              :      0.017u      0.017s      0.036w      3 calls
DFH: initialize()                   :      0.033u      0.017s      0.036w      1 calls
DFH: AO Construction                :      0.000u      0.000s      0.010w      1 calls
DFH: AO-Met. Contraction            :      0.000u      0.000s      0.002w      1 calls
HF: Form core H                     :      0.000u      0.000s      0.006w      1 calls
HF: Form S/X                        :      0.000u      0.000s      0.002w      1 calls
HF: Guess                           :      0.033u      0.000s      0.028w      1 calls
SAD Guess                           :      0.017u      0.000s      0.024w      1 calls
HF: Form G                          :      0.000u      0.000s      0.008w      9 calls
JK: D                               :      0.000u      0.000s      0.000w      9 calls
JK: USO2AO                          :      0.000u      0.000s      0.000w      9 calls
JK: JK                              :      0.000u      0.000s      0.007w      9 calls
DFH: compute_JK()                   :      0.000u      0.000s      0.007w      9 calls
DFH: Grabbing AOs                   :      0.000u      0.000s      0.000w      9 calls
DFH: compute_J                      :      0.000u      0.000s      0.001w      9 calls
DFH: compute_K                      :      0.000u      0.000s      0.005w      9 calls
JK: AO2USO                          :      0.000u      0.000s      0.000w      9 calls
HF: Form F                          :      0.000u      0.000s      0.000w      9 calls
HF: Form D                          :      0.000u      0.000s      0.000w      9 calls
HF: DIIS                            :      0.017u      0.000s      0.006w      8 calls
DIISManager::add_entry              :      0.000u      0.000s      0.001w      8 calls
DIISManager::extrapolate            :      0.000u      0.000s      0.001w      8 calls
bMatrix setup                       :      0.000u      0.000s      0.000w      8 calls
bMatrix pseudoinverse               :      0.000u      0.000s      0.000w      8 calls
New vector                          :      0.000u      0.000s      0.000w      8 calls
HF: Form C                          :      0.000u      0.000s      0.001w      8 calls

--------------------------------------------------------------------------------------
DFH: sparsity prep                  :      0.017u      0.017s      0.039w      1 calls
| Libint2ERI::Libint2ERI            :      0.017u      0.017s      0.034w      1 calls
DFH: initialize()                   :      0.033u      0.017s      0.036w      1 calls
| Libint2ERI::Libint2ERI            :      0.000u      0.000s      0.002w      2 calls
| DFH: AO Construction              :      0.000u      0.000s      0.010w      1 calls
| DFH: AO-Met. Contraction          :      0.000u      0.000s      0.002w      1 calls
HF: Form core H                     :      0.000u      0.000s      0.006w      1 calls
HF: Form S/X                        :      0.000u      0.000s      0.002w      1 calls
HF: Guess                           :      0.033u      0.000s      0.028w      1 calls
| SAD Guess                         :      0.017u      0.000s      0.024w      1 calls
HF: Form G                          :      0.000u      0.000s      0.008w      9 calls
| JK: D                             :      0.000u      0.000s      0.000w      9 calls
| JK: USO2AO                        :      0.000u      0.000s      0.000w      9 calls
| JK: JK                            :      0.000u      0.000s      0.007w      9 calls
| | DFH: compute_JK()               :      0.000u      0.000s      0.007w      9 calls
| | | DFH: Grabbing AOs             :      0.000u      0.000s      0.000w      9 calls
| | | DFH: compute_J                :      0.000u      0.000s      0.001w      9 calls
| | | DFH: compute_K                :      0.000u      0.000s      0.005w      9 calls
| JK: AO2USO                        :      0.000u      0.000s      0.000w      9 calls
HF: Form F                          :      0.000u      0.000s      0.000w      9 calls
HF: Form D                          :      0.000u      0.000s      0.000w      9 calls
HF: DIIS                            :      0.017u      0.000s      0.006w      8 calls
| DIISManager::add_entry            :      0.000u      0.000s      0.001w      8 calls
| DIISManager::extrapolate          :      0.000u      0.000s      0.001w      8 calls
| | bMatrix setup                   :      0.000u      0.000s      0.000w      8 calls
| | bMatrix pseudoinverse           :      0.000u      0.000s      0.000w      8 calls
| | New vector                      :      0.000u      0.000s      0.000w      8 calls
HF: Form C                          :      0.000u      0.000s      0.001w      8 calls

**************************************************************************************

Host: cfeld-pcx14803

Timers On : Sat Jul 10 16:38:11 2021
Timers Off: Sat Jul 10 16:38:42 2021

Wall Time:       31.18 seconds

                                                       Time (seconds)
Module                                       User      System        Wall        Calls
DFH: sparsity prep                  :      0.000u      0.000s      0.005w      1 calls
Libint2ERI::Libint2ERI              :      0.017u      0.000s      0.005w      3 calls
DFH: initialize()                   :      0.033u      0.000s      0.020w      1 calls
DFH: AO Construction                :      0.017u      0.000s      0.003w      1 calls
DFH: AO-Met. Contraction            :      0.000u      0.000s      0.002w      1 calls
HF: Form core H                     :      0.000u      0.017s      0.002w      1 calls
HF: Form S/X                        :      0.000u      0.000s      0.000w      1 calls
HF: Guess                           :      0.017u      0.000s      0.016w      1 calls
SAD Guess                           :      0.017u      0.000s      0.015w      1 calls
HF: Form G                          :      0.017u      0.000s      0.008w      9 calls
JK: D                               :      0.000u      0.000s      0.000w      9 calls
JK: USO2AO                          :      0.000u      0.000s      0.000w      9 calls
JK: JK                              :      0.017u      0.000s      0.006w      9 calls
DFH: compute_JK()                   :      0.017u      0.000s      0.006w      9 calls
DFH: Grabbing AOs                   :      0.000u      0.000s      0.000w      9 calls
DFH: compute_J                      :      0.000u      0.000s      0.001w      9 calls
DFH: compute_K                      :      0.017u      0.000s      0.005w      9 calls
JK: AO2USO                          :      0.000u      0.000s      0.000w      9 calls
HF: Form F                          :      0.000u      0.000s      0.000w      9 calls
HF: Form D                          :      0.000u      0.000s      0.000w      9 calls
HF: DIIS                            :      0.000u      0.000s      0.005w      8 calls
DIISManager::add_entry              :      0.000u      0.000s      0.001w      8 calls
DIISManager::extrapolate            :      0.000u      0.000s      0.000w      8 calls
bMatrix setup                       :      0.000u      0.000s      0.000w      8 calls
bMatrix pseudoinverse               :      0.000u      0.000s      0.000w      8 calls
New vector                          :      0.000u      0.000s      0.000w      8 calls
HF: Form C                          :      0.000u      0.000s      0.001w      8 calls

--------------------------------------------------------------------------------------
DFH: sparsity prep                  :      0.000u      0.000s      0.005w      1 calls
| Libint2ERI::Libint2ERI            :      0.000u      0.000s      0.003w      1 calls
DFH: initialize()                   :      0.033u      0.000s      0.020w      1 calls
| Libint2ERI::Libint2ERI            :      0.017u      0.000s      0.002w      2 calls
| DFH: AO Construction              :      0.017u      0.000s      0.003w      1 calls
| DFH: AO-Met. Contraction          :      0.000u      0.000s      0.002w      1 calls
HF: Form core H                     :      0.000u      0.017s      0.002w      1 calls
HF: Form S/X                        :      0.000u      0.000s      0.000w      1 calls
HF: Guess                           :      0.017u      0.000s      0.016w      1 calls
| SAD Guess                         :      0.017u      0.000s      0.015w      1 calls
HF: Form G                          :      0.017u      0.000s      0.008w      9 calls
| JK: D                             :      0.000u      0.000s      0.000w      9 calls
| JK: USO2AO                        :      0.000u      0.000s      0.000w      9 calls
| JK: JK                            :      0.017u      0.000s      0.006w      9 calls
| | DFH: compute_JK()               :      0.017u      0.000s      0.006w      9 calls
| | | DFH: Grabbing AOs             :      0.000u      0.000s      0.000w      9 calls
| | | DFH: compute_J                :      0.000u      0.000s      0.001w      9 calls
| | | DFH: compute_K                :      0.017u      0.000s      0.005w      9 calls
| JK: AO2USO                        :      0.000u      0.000s      0.000w      9 calls
HF: Form F                          :      0.000u      0.000s      0.000w      9 calls
HF: Form D                          :      0.000u      0.000s      0.000w      9 calls
HF: DIIS                            :      0.000u      0.000s      0.005w      8 calls
| DIISManager::add_entry            :      0.000u      0.000s      0.001w      8 calls
| DIISManager::extrapolate          :      0.000u      0.000s      0.000w      8 calls
| | bMatrix setup                   :      0.000u      0.000s      0.000w      8 calls
| | bMatrix pseudoinverse           :      0.000u      0.000s      0.000w      8 calls
| | New vector                      :      0.000u      0.000s      0.000w      8 calls
HF: Form C                          :      0.000u      0.000s      0.001w      8 calls

**************************************************************************************

Host: cfeld-pcx14803

Timers On : Sat Jul 10 16:38:59 2021
Timers Off: Sat Jul 10 16:39:34 2021

Wall Time:       34.96 seconds

                                                       Time (seconds)
Module                                       User      System        Wall        Calls
DFH: sparsity prep                  :      0.017u      0.000s      0.006w      1 calls
Libint2ERI::Libint2ERI              :      0.017u      0.000s      0.006w      3 calls
DFH: initialize()                   :      0.017u      0.017s      0.021w      1 calls
DFH: AO Construction                :      0.000u      0.000s      0.003w      1 calls
DFH: AO-Met. Contraction            :      0.000u      0.000s      0.002w      1 calls
HF: Form core H                     :      0.017u      0.000s      0.002w      1 calls
HF: Form S/X                        :      0.000u      0.000s      0.000w      1 calls
HF: Guess                           :      0.017u      0.000s      0.025w      1 calls
SAD Guess                           :      0.017u      0.000s      0.024w      1 calls
HF: Form G                          :      0.017u      0.000s      0.008w      9 calls
JK: D                               :      0.000u      0.000s      0.000w      9 calls
JK: USO2AO                          :      0.000u      0.000s      0.000w      9 calls
JK: JK                              :      0.017u      0.000s      0.007w      9 calls
DFH: compute_JK()                   :      0.017u      0.000s      0.007w      9 calls
DFH: Grabbing AOs                   :      0.000u      0.000s      0.000w      9 calls
DFH: compute_J                      :      0.000u      0.000s      0.001w      9 calls
DFH: compute_K                      :      0.017u      0.000s      0.005w      9 calls
JK: AO2USO                          :      0.000u      0.000s      0.001w      9 calls
HF: Form F                          :      0.000u      0.000s      0.000w      9 calls
HF: Form D                          :      0.000u      0.000s      0.000w      9 calls
HF: DIIS                            :      0.000u      0.000s      0.005w      8 calls
DIISManager::add_entry              :      0.000u      0.000s      0.001w      8 calls
DIISManager::extrapolate            :      0.000u      0.000s      0.001w      8 calls
bMatrix setup                       :      0.000u      0.000s      0.000w      8 calls
bMatrix pseudoinverse               :      0.000u      0.000s      0.000w      8 calls
New vector                          :      0.000u      0.000s      0.000w      8 calls
HF: Form C                          :      0.000u      0.000s      0.001w      8 calls

--------------------------------------------------------------------------------------
DFH: sparsity prep                  :      0.017u      0.000s      0.006w      1 calls
| Libint2ERI::Libint2ERI            :      0.017u      0.000s      0.004w      1 calls
DFH: initialize()                   :      0.017u      0.017s      0.021w      1 calls
| Libint2ERI::Libint2ERI            :      0.000u      0.000s      0.002w      2 calls
| DFH: AO Construction              :      0.000u      0.000s      0.003w      1 calls
| DFH: AO-Met. Contraction          :      0.000u      0.000s      0.002w      1 calls
HF: Form core H                     :      0.017u      0.000s      0.002w      1 calls
HF: Form S/X                        :      0.000u      0.000s      0.000w      1 calls
HF: Guess                           :      0.017u      0.000s      0.025w      1 calls
| SAD Guess                         :      0.017u      0.000s      0.024w      1 calls
HF: Form G                          :      0.017u      0.000s      0.008w      9 calls
| JK: D                             :      0.000u      0.000s      0.000w      9 calls
| JK: USO2AO                        :      0.000u      0.000s      0.000w      9 calls
| JK: JK                            :      0.017u      0.000s      0.007w      9 calls
| | DFH: compute_JK()               :      0.017u      0.000s      0.007w      9 calls
| | | DFH: Grabbing AOs             :      0.000u      0.000s      0.000w      9 calls
| | | DFH: compute_J                :      0.000u      0.000s      0.001w      9 calls
| | | DFH: compute_K                :      0.017u      0.000s      0.005w      9 calls
| JK: AO2USO                        :      0.000u      0.000s      0.001w      9 calls
HF: Form F                          :      0.000u      0.000s      0.000w      9 calls
HF: Form D                          :      0.000u      0.000s      0.000w      9 calls
HF: DIIS                            :      0.000u      0.000s      0.005w      8 calls
| DIISManager::add_entry            :      0.000u      0.000s      0.001w      8 calls
| DIISManager::extrapolate          :      0.000u      0.000s      0.001w      8 calls
| | bMatrix setup                   :      0.000u      0.000s      0.000w      8 calls
| | bMatrix pseudoinverse           :      0.000u      0.000s      0.000w      8 calls
| | New vector                      :      0.000u      0.000s      0.000w      8 calls
HF: Form C                          :      0.000u      0.000s      0.001w      8 calls

**************************************************************************************

Host: cfeld-pcx14803

Timers On : Sat Jul 10 16:46:55 2021
Timers Off: Sat Jul 10 16:47:07 2021

Wall Time:       12.14 seconds

                                                       Time (seconds)
Module                                       User      System        Wall        Calls
DFH: sparsity prep                  :      0.000u      0.017s      0.036w      1 calls
Libint2ERI::Libint2ERI              :      0.000u      0.017s      0.032w      3 calls
DFH: initialize()                   :      0.033u      0.017s      0.037w      1 calls
DFH: AO Construction                :      0.000u      0.000s      0.010w      1 calls
DFH: AO-Met. Contraction            :      0.017u      0.000s      0.002w      1 calls
HF: Form core H                     :      0.000u      0.000s      0.006w      1 calls
HF: Form S/X                        :      0.000u      0.000s      0.002w      1 calls
HF: Guess                           :      0.017u      0.017s      0.024w      1 calls
SAD Guess                           :      0.017u      0.017s      0.022w      1 calls
HF: Form G                          :      0.000u      0.000s      0.009w      9 calls
JK: D                               :      0.000u      0.000s      0.000w      9 calls
JK: USO2AO                          :      0.000u      0.000s      0.000w      9 calls
JK: JK                              :      0.000u      0.000s      0.007w      9 calls
DFH: compute_JK()                   :      0.000u      0.000s      0.007w      9 calls
DFH: Grabbing AOs                   :      0.000u      0.000s      0.000w      9 calls
DFH: compute_J                      :      0.000u      0.000s      0.001w      9 calls
DFH: compute_K                      :      0.000u      0.000s      0.006w      9 calls
JK: AO2USO                          :      0.000u      0.000s      0.001w      9 calls
HF: Form F                          :      0.000u      0.000s      0.000w      9 calls
HF: Form D                          :      0.000u      0.000s      0.000w      9 calls
HF: DIIS                            :      0.017u      0.000s      0.008w      8 calls
DIISManager::add_entry              :      0.000u      0.000s      0.001w      8 calls
DIISManager::extrapolate            :      0.000u      0.000s      0.001w      8 calls
bMatrix setup                       :      0.000u      0.000s      0.001w      8 calls
bMatrix pseudoinverse               :      0.000u      0.000s      0.000w      8 calls
New vector                          :      0.000u      0.000s      0.000w      8 calls
HF: Form C                          :      0.000u      0.000s      0.001w      8 calls

--------------------------------------------------------------------------------------
DFH: sparsity prep                  :      0.000u      0.017s      0.036w      1 calls
| Libint2ERI::Libint2ERI            :      0.000u      0.017s      0.030w      1 calls
DFH: initialize()                   :      0.033u      0.017s      0.037w      1 calls
| Libint2ERI::Libint2ERI            :      0.000u      0.000s      0.002w      2 calls
| DFH: AO Construction              :      0.000u      0.000s      0.010w      1 calls
| DFH: AO-Met. Contraction          :      0.017u      0.000s      0.002w      1 calls
HF: Form core H                     :      0.000u      0.000s      0.006w      1 calls
HF: Form S/X                        :      0.000u      0.000s      0.002w      1 calls
HF: Guess                           :      0.017u      0.017s      0.024w      1 calls
| SAD Guess                         :      0.017u      0.017s      0.022w      1 calls
HF: Form G                          :      0.000u      0.000s      0.009w      9 calls
| JK: D                             :      0.000u      0.000s      0.000w      9 calls
| JK: USO2AO                        :      0.000u      0.000s      0.000w      9 calls
| JK: JK                            :      0.000u      0.000s      0.007w      9 calls
| | DFH: compute_JK()               :      0.000u      0.000s      0.007w      9 calls
| | | DFH: Grabbing AOs             :      0.000u      0.000s      0.000w      9 calls
| | | DFH: compute_J                :      0.000u      0.000s      0.001w      9 calls
| | | DFH: compute_K                :      0.000u      0.000s      0.006w      9 calls
| JK: AO2USO                        :      0.000u      0.000s      0.001w      9 calls
HF: Form F                          :      0.000u      0.000s      0.000w      9 calls
HF: Form D                          :      0.000u      0.000s      0.000w      9 calls
HF: DIIS                            :      0.017u      0.000s      0.008w      8 calls
| DIISManager::add_entry            :      0.000u      0.000s      0.001w      8 calls
| DIISManager::extrapolate          :      0.000u      0.000s      0.001w      8 calls
| | bMatrix setup                   :      0.000u      0.000s      0.001w      8 calls
| | bMatrix pseudoinverse           :      0.000u      0.000s      0.000w      8 calls
| | New vector                      :      0.000u      0.000s      0.000w      8 calls
HF: Form C                          :      0.000u      0.000s      0.001w      8 calls

**************************************************************************************

Host: cfeld-pcx14803

Timers On : Sat Jul 10 16:48:58 2021
Timers Off: Sat Jul 10 16:49:14 2021

Wall Time:       15.85 seconds

                                                       Time (seconds)
Module                                       User      System        Wall        Calls
DFH: sparsity prep                  :      0.000u      0.017s      0.011w      1 calls
Libint2ERI::Libint2ERI              :      0.000u      0.017s      0.010w      3 calls
DFH: initialize()                   :      0.033u      0.000s      0.021w      1 calls
DFH: AO Construction                :      0.017u      0.000s      0.003w      1 calls
DFH: AO-Met. Contraction            :      0.000u      0.000s      0.002w      1 calls
HF: Form core H                     :      0.000u      0.000s      0.002w      1 calls
HF: Form S/X                        :      0.000u      0.000s      0.000w      1 calls
HF: Guess                           :      0.017u      0.000s      0.015w      1 calls
SAD Guess                           :      0.017u      0.000s      0.014w      1 calls
HF: Form G                          :      0.000u      0.000s      0.008w      9 calls
JK: D                               :      0.000u      0.000s      0.000w      9 calls
JK: USO2AO                          :      0.000u      0.000s      0.000w      9 calls
JK: JK                              :      0.000u      0.000s      0.007w      9 calls
DFH: compute_JK()                   :      0.000u      0.000s      0.006w      9 calls
DFH: Grabbing AOs                   :      0.000u      0.000s      0.000w      9 calls
DFH: compute_J                      :      0.000u      0.000s      0.001w      9 calls
DFH: compute_K                      :      0.000u      0.000s      0.005w      9 calls
JK: AO2USO                          :      0.000u      0.000s      0.000w      9 calls
HF: Form F                          :      0.000u      0.000s      0.000w      9 calls
HF: Form D                          :      0.000u      0.000s      0.000w      9 calls
HF: DIIS                            :      0.017u      0.000s      0.005w      8 calls
DIISManager::add_entry              :      0.000u      0.000s      0.001w      8 calls
DIISManager::extrapolate            :      0.000u      0.000s      0.001w      8 calls
bMatrix setup                       :      0.000u      0.000s      0.000w      8 calls
bMatrix pseudoinverse               :      0.000u      0.000s      0.000w      8 calls
New vector                          :      0.000u      0.000s      0.000w      8 calls
HF: Form C                          :      0.000u      0.000s      0.001w      8 calls

--------------------------------------------------------------------------------------
DFH: sparsity prep                  :      0.000u      0.017s      0.011w      1 calls
| Libint2ERI::Libint2ERI            :      0.000u      0.017s      0.009w      1 calls
DFH: initialize()                   :      0.033u      0.000s      0.021w      1 calls
| Libint2ERI::Libint2ERI            :      0.000u      0.000s      0.002w      2 calls
| DFH: AO Construction              :      0.017u      0.000s      0.003w      1 calls
| DFH: AO-Met. Contraction          :      0.000u      0.000s      0.002w      1 calls
HF: Form core H                     :      0.000u      0.000s      0.002w      1 calls
HF: Form S/X                        :      0.000u      0.000s      0.000w      1 calls
HF: Guess                           :      0.017u      0.000s      0.015w      1 calls
| SAD Guess                         :      0.017u      0.000s      0.014w      1 calls
HF: Form G                          :      0.000u      0.000s      0.008w      9 calls
| JK: D                             :      0.000u      0.000s      0.000w      9 calls
| JK: USO2AO                        :      0.000u      0.000s      0.000w      9 calls
| JK: JK                            :      0.000u      0.000s      0.007w      9 calls
| | DFH: compute_JK()               :      0.000u      0.000s      0.006w      9 calls
| | | DFH: Grabbing AOs             :      0.000u      0.000s      0.000w      9 calls
| | | DFH: compute_J                :      0.000u      0.000s      0.001w      9 calls
| | | DFH: compute_K                :      0.000u      0.000s      0.005w      9 calls
| JK: AO2USO                        :      0.000u      0.000s      0.000w      9 calls
HF: Form F                          :      0.000u      0.000s      0.000w      9 calls
HF: Form D                          :      0.000u      0.000s      0.000w      9 calls
HF: DIIS                            :      0.017u      0.000s      0.005w      8 calls
| DIISManager::add_entry            :      0.000u      0.000s      0.001w      8 calls
| DIISManager::extrapolate          :      0.000u      0.000s      0.001w      8 calls
| | bMatrix setup                   :      0.000u      0.000s      0.000w      8 calls
| | bMatrix pseudoinverse           :      0.000u      0.000s      0.000w      8 calls
| | New vector                      :      0.000u      0.000s      0.000w      8 calls
HF: Form C                          :      0.000u      0.000s      0.001w      8 calls

**************************************************************************************

Host: cfeld-pcx14803

Timers On : Sat Jul 10 16:50:24 2021
Timers Off: Sat Jul 10 16:50:57 2021

Wall Time:       32.48 seconds

                                                       Time (seconds)
Module                                       User      System        Wall        Calls
DFH: sparsity prep                  :      0.000u      0.000s      0.005w      1 calls
Libint2ERI::Libint2ERI              :      0.000u      0.000s      0.006w      3 calls
DFH: initialize()                   :      0.017u      0.000s      0.020w      1 calls
DFH: AO Construction                :      0.000u      0.000s      0.003w      1 calls
DFH: AO-Met. Contraction            :      0.000u      0.000s      0.002w      1 calls
HF: Form core H                     :      0.000u      0.000s      0.002w      1 calls
HF: Form S/X                        :      0.000u      0.000s      0.000w      1 calls
HF: Guess                           :      0.033u      0.017s      0.016w      1 calls
SAD Guess                           :      0.033u      0.017s      0.014w      1 calls
HF: Form G                          :      0.000u      0.000s      0.008w      9 calls
JK: D                               :      0.000u      0.000s      0.000w      9 calls
JK: USO2AO                          :      0.000u      0.000s      0.000w      9 calls
JK: JK                              :      0.000u      0.000s      0.007w      9 calls
DFH: compute_JK()                   :      0.000u      0.000s      0.007w      9 calls
DFH: Grabbing AOs                   :      0.000u      0.000s      0.000w      9 calls
DFH: compute_J                      :      0.000u      0.000s      0.001w      9 calls
DFH: compute_K                      :      0.000u      0.000s      0.005w      9 calls
JK: AO2USO                          :      0.000u      0.000s      0.000w      9 calls
HF: Form F                          :      0.000u      0.000s      0.000w      9 calls
HF: Form D                          :      0.000u      0.000s      0.000w      9 calls
HF: DIIS                            :      0.033u      0.000s      0.005w      8 calls
DIISManager::add_entry              :      0.000u      0.000s      0.001w      8 calls
DIISManager::extrapolate            :      0.000u      0.000s      0.001w      8 calls
bMatrix setup                       :      0.000u      0.000s      0.000w      8 calls
bMatrix pseudoinverse               :      0.000u      0.000s      0.000w      8 calls
New vector                          :      0.000u      0.000s      0.000w      8 calls
HF: Form C                          :      0.000u      0.000s      0.001w      8 calls

--------------------------------------------------------------------------------------
DFH: sparsity prep                  :      0.000u      0.000s      0.005w      1 calls
| Libint2ERI::Libint2ERI            :      0.000u      0.000s      0.004w      1 calls
DFH: initialize()                   :      0.017u      0.000s      0.020w      1 calls
| Libint2ERI::Libint2ERI            :      0.000u      0.000s      0.002w      2 calls
| DFH: AO Construction              :      0.000u      0.000s      0.003w      1 calls
| DFH: AO-Met. Contraction          :      0.000u      0.000s      0.002w      1 calls
HF: Form core H                     :      0.000u      0.000s      0.002w      1 calls
HF: Form S/X                        :      0.000u      0.000s      0.000w      1 calls
HF: Guess                           :      0.033u      0.017s      0.016w      1 calls
| SAD Guess                         :      0.033u      0.017s      0.014w      1 calls
HF: Form G                          :      0.000u      0.000s      0.008w      9 calls
| JK: D                             :      0.000u      0.000s      0.000w      9 calls
| JK: USO2AO                        :      0.000u      0.000s      0.000w      9 calls
| JK: JK                            :      0.000u      0.000s      0.007w      9 calls
| | DFH: compute_JK()               :      0.000u      0.000s      0.007w      9 calls
| | | DFH: Grabbing AOs             :      0.000u      0.000s      0.000w      9 calls
| | | DFH: compute_J                :      0.000u      0.000s      0.001w      9 calls
| | | DFH: compute_K                :      0.000u      0.000s      0.005w      9 calls
| JK: AO2USO                        :      0.000u      0.000s      0.000w      9 calls
HF: Form F                          :      0.000u      0.000s      0.000w      9 calls
HF: Form D                          :      0.000u      0.000s      0.000w      9 calls
HF: DIIS                            :      0.033u      0.000s      0.005w      8 calls
| DIISManager::add_entry            :      0.000u      0.000s      0.001w      8 calls
| DIISManager::extrapolate          :      0.000u      0.000s      0.001w      8 calls
| | bMatrix setup                   :      0.000u      0.000s      0.000w      8 calls
| | bMatrix pseudoinverse           :      0.000u      0.000s      0.000w      8 calls
| | New vector                      :      0.000u      0.000s      0.000w      8 calls
HF: Form C                          :      0.000u      0.000s      0.001w      8 calls

**************************************************************************************

Host: cfeld-pcx14803

Timers On : Sat Jul 10 16:53:47 2021
Timers Off: Sat Jul 10 16:54:33 2021

Wall Time:       45.65 seconds

                                                       Time (seconds)
Module                                       User      System        Wall        Calls
DFH: sparsity prep                  :      0.017u      0.000s      0.028w      1 calls
Libint2ERI::Libint2ERI              :      0.017u      0.000s      0.025w      3 calls
DFH: initialize()                   :      0.033u      0.017s      0.033w      1 calls
DFH: AO Construction                :      0.000u      0.000s      0.008w      1 calls
DFH: AO-Met. Contraction            :      0.017u      0.000s      0.002w      1 calls
HF: Form core H                     :      0.000u      0.000s      0.007w      1 calls
HF: Form S/X                        :      0.000u      0.000s      0.002w      1 calls
HF: Guess                           :      0.017u      0.017s      0.026w      1 calls
SAD Guess                           :      0.017u      0.017s      0.023w      1 calls
HF: Form G                          :      0.050u      0.000s      0.009w      9 calls
JK: D                               :      0.000u      0.000s      0.000w      9 calls
JK: USO2AO                          :      0.000u      0.000s      0.000w      9 calls
JK: JK                              :      0.033u      0.000s      0.008w      9 calls
DFH: compute_JK()                   :      0.033u      0.000s      0.008w      9 calls
DFH: Grabbing AOs                   :      0.000u      0.000s      0.000w      9 calls
DFH: compute_J                      :      0.017u      0.000s      0.002w      9 calls
DFH: compute_K                      :      0.017u      0.000s      0.006w      9 calls
JK: AO2USO                          :      0.000u      0.000s      0.000w      9 calls
HF: Form F                          :      0.000u      0.000s      0.001w      9 calls
HF: Form D                          :      0.000u      0.000s      0.000w      9 calls
HF: DIIS                            :      0.000u      0.000s      0.006w      8 calls
DIISManager::add_entry              :      0.000u      0.000s      0.001w      8 calls
DIISManager::extrapolate            :      0.000u      0.000s      0.001w      8 calls
bMatrix setup                       :      0.000u      0.000s      0.000w      8 calls
bMatrix pseudoinverse               :      0.000u      0.000s      0.000w      8 calls
New vector                          :      0.000u      0.000s      0.000w      8 calls
HF: Form C                          :      0.000u      0.000s      0.001w      8 calls

--------------------------------------------------------------------------------------
DFH: sparsity prep                  :      0.017u      0.000s      0.028w      1 calls
| Libint2ERI::Libint2ERI            :      0.017u      0.000s      0.023w      1 calls
DFH: initialize()                   :      0.033u      0.017s      0.033w      1 calls
| Libint2ERI::Libint2ERI            :      0.000u      0.000s      0.002w      2 calls
| DFH: AO Construction              :      0.000u      0.000s      0.008w      1 calls
| DFH: AO-Met. Contraction          :      0.017u      0.000s      0.002w      1 calls
HF: Form core H                     :      0.000u      0.000s      0.007w      1 calls
HF: Form S/X                        :      0.000u      0.000s      0.002w      1 calls
HF: Guess                           :      0.017u      0.017s      0.026w      1 calls
| SAD Guess                         :      0.017u      0.017s      0.023w      1 calls
HF: Form G                          :      0.050u      0.000s      0.009w      9 calls
| JK: D                             :      0.000u      0.000s      0.000w      9 calls
| JK: USO2AO                        :      0.000u      0.000s      0.000w      9 calls
| JK: JK                            :      0.033u      0.000s      0.008w      9 calls
| | DFH: compute_JK()               :      0.033u      0.000s      0.008w      9 calls
| | | DFH: Grabbing AOs             :      0.000u      0.000s      0.000w      9 calls
| | | DFH: compute_J                :      0.017u      0.000s      0.002w      9 calls
| | | DFH: compute_K                :      0.017u      0.000s      0.006w      9 calls
| JK: AO2USO                        :      0.000u      0.000s      0.000w      9 calls
HF: Form F                          :      0.000u      0.000s      0.001w      9 calls
HF: Form D                          :      0.000u      0.000s      0.000w      9 calls
HF: DIIS                            :      0.000u      0.000s      0.006w      8 calls
| DIISManager::add_entry            :      0.000u      0.000s      0.001w      8 calls
| DIISManager::extrapolate          :      0.000u      0.000s      0.001w      8 calls
| | bMatrix setup                   :      0.000u      0.000s      0.000w      8 calls
| | bMatrix pseudoinverse           :      0.000u      0.000s      0.000w      8 calls
| | New vector                      :      0.000u      0.000s      0.000w      8 calls
HF: Form C                          :      0.000u      0.000s      0.001w      8 calls

**************************************************************************************

Host: cfeld-pcx14803

Timers On : Sat Jul 10 16:57:29 2021
Timers Off: Sat Jul 10 16:57:48 2021

Wall Time:       19.58 seconds

                                                       Time (seconds)
Module                                       User      System        Wall        Calls
DFH: sparsity prep                  :      0.000u      0.000s      0.005w      1 calls
Libint2ERI::Libint2ERI              :      0.000u      0.000s      0.005w      3 calls
DFH: initialize()                   :      0.033u      0.017s      0.020w      1 calls
DFH: AO Construction                :      0.000u      0.000s      0.003w      1 calls
DFH: AO-Met. Contraction            :      0.000u      0.000s      0.002w      1 calls
HF: Form core H                     :      0.000u      0.000s      0.002w      1 calls
HF: Form S/X                        :      0.000u      0.000s      0.000w      1 calls
HF: Guess                           :      0.017u      0.000s      0.015w      1 calls
SAD Guess                           :      0.017u      0.000s      0.014w      1 calls
HF: Form G                          :      0.000u      0.000s      0.008w      9 calls
JK: D                               :      0.000u      0.000s      0.000w      9 calls
JK: USO2AO                          :      0.000u      0.000s      0.000w      9 calls
JK: JK                              :      0.000u      0.000s      0.006w      9 calls
DFH: compute_JK()                   :      0.000u      0.000s      0.006w      9 calls
DFH: Grabbing AOs                   :      0.000u      0.000s      0.000w      9 calls
DFH: compute_J                      :      0.000u      0.000s      0.001w      9 calls
DFH: compute_K                      :      0.000u      0.000s      0.005w      9 calls
JK: AO2USO                          :      0.000u      0.000s      0.000w      9 calls
HF: Form F                          :      0.000u      0.000s      0.000w      9 calls
HF: Form D                          :      0.000u      0.000s      0.000w      9 calls
HF: DIIS                            :      0.000u      0.000s      0.005w      8 calls
DIISManager::add_entry              :      0.000u      0.000s      0.001w      8 calls
DIISManager::extrapolate            :      0.000u      0.000s      0.000w      8 calls
bMatrix setup                       :      0.000u      0.000s      0.000w      8 calls
bMatrix pseudoinverse               :      0.000u      0.000s      0.000w      8 calls
New vector                          :      0.000u      0.000s      0.000w      8 calls
HF: Form C                          :      0.000u      0.000s      0.001w      8 calls

--------------------------------------------------------------------------------------
DFH: sparsity prep                  :      0.000u      0.000s      0.005w      1 calls
| Libint2ERI::Libint2ERI            :      0.000u      0.000s      0.004w      1 calls
DFH: initialize()                   :      0.033u      0.017s      0.020w      1 calls
| Libint2ERI::Libint2ERI            :      0.000u      0.000s      0.002w      2 calls
| DFH: AO Construction              :      0.000u      0.000s      0.003w      1 calls
| DFH: AO-Met. Contraction          :      0.000u      0.000s      0.002w      1 calls
HF: Form core H                     :      0.000u      0.000s      0.002w      1 calls
HF: Form S/X                        :      0.000u      0.000s      0.000w      1 calls
HF: Guess                           :      0.017u      0.000s      0.015w      1 calls
| SAD Guess                         :      0.017u      0.000s      0.014w      1 calls
HF: Form G                          :      0.000u      0.000s      0.008w      9 calls
| JK: D                             :      0.000u      0.000s      0.000w      9 calls
| JK: USO2AO                        :      0.000u      0.000s      0.000w      9 calls
| JK: JK                            :      0.000u      0.000s      0.006w      9 calls
| | DFH: compute_JK()               :      0.000u      0.000s      0.006w      9 calls
| | | DFH: Grabbing AOs             :      0.000u      0.000s      0.000w      9 calls
| | | DFH: compute_J                :      0.000u      0.000s      0.001w      9 calls
| | | DFH: compute_K                :      0.000u      0.000s      0.005w      9 calls
| JK: AO2USO                        :      0.000u      0.000s      0.000w      9 calls
HF: Form F                          :      0.000u      0.000s      0.000w      9 calls
HF: Form D                          :      0.000u      0.000s      0.000w      9 calls
HF: DIIS                            :      0.000u      0.000s      0.005w      8 calls
| DIISManager::add_entry            :      0.000u      0.000s      0.001w      8 calls
| DIISManager::extrapolate          :      0.000u      0.000s      0.000w      8 calls
| | bMatrix setup                   :      0.000u      0.000s      0.000w      8 calls
| | bMatrix pseudoinverse           :      0.000u      0.000s      0.000w      8 calls
| | New vector                      :      0.000u      0.000s      0.000w      8 calls
HF: Form C                          :      0.000u      0.000s      0.001w      8 calls

**************************************************************************************

Host: cfeld-pcx14803

Timers On : Sat Jul 10 16:59:43 2021
Timers Off: Sat Jul 10 17:00:22 2021

Wall Time:       38.89 seconds

                                                       Time (seconds)
Module                                       User      System        Wall        Calls
DFH: sparsity prep                  :      0.000u      0.017s      0.005w      1 calls
Libint2ERI::Libint2ERI              :      0.000u      0.017s      0.005w      3 calls
DFH: initialize()                   :      0.033u      0.000s      0.023w      1 calls
DFH: AO Construction                :      0.000u      0.000s      0.003w      1 calls
DFH: AO-Met. Contraction            :      0.000u      0.000s      0.002w      1 calls
HF: Form core H                     :      0.000u      0.000s      0.002w      1 calls
HF: Form S/X                        :      0.000u      0.000s      0.000w      1 calls
HF: Guess                           :      0.033u      0.000s      0.015w      1 calls
SAD Guess                           :      0.017u      0.000s      0.014w      1 calls
HF: Form G                          :      0.033u      0.000s      0.008w      9 calls
JK: D                               :      0.000u      0.000s      0.000w      9 calls
JK: USO2AO                          :      0.000u      0.000s      0.000w      9 calls
JK: JK                              :      0.033u      0.000s      0.007w      9 calls
DFH: compute_JK()                   :      0.033u      0.000s      0.007w      9 calls
DFH: Grabbing AOs                   :      0.000u      0.000s      0.000w      9 calls
DFH: compute_J                      :      0.000u      0.000s      0.001w      9 calls
DFH: compute_K                      :      0.017u      0.000s      0.005w      9 calls
JK: AO2USO                          :      0.000u      0.000s      0.000w      9 calls
HF: Form F                          :      0.000u      0.000s      0.000w      9 calls
HF: Form D                          :      0.000u      0.000s      0.000w      9 calls
HF: DIIS                            :      0.000u      0.000s      0.006w      8 calls
DIISManager::add_entry              :      0.000u      0.000s      0.001w      8 calls
DIISManager::extrapolate            :      0.000u      0.000s      0.001w      8 calls
bMatrix setup                       :      0.000u      0.000s      0.000w      8 calls
bMatrix pseudoinverse               :      0.000u      0.000s      0.000w      8 calls
New vector                          :      0.000u      0.000s      0.000w      8 calls
HF: Form C                          :      0.000u      0.000s      0.001w      8 calls

--------------------------------------------------------------------------------------
DFH: sparsity prep                  :      0.000u      0.017s      0.005w      1 calls
| Libint2ERI::Libint2ERI            :      0.000u      0.017s      0.003w      1 calls
DFH: initialize()                   :      0.033u      0.000s      0.023w      1 calls
| Libint2ERI::Libint2ERI            :      0.000u      0.000s      0.002w      2 calls
| DFH: AO Construction              :      0.000u      0.000s      0.003w      1 calls
| DFH: AO-Met. Contraction          :      0.000u      0.000s      0.002w      1 calls
HF: Form core H                     :      0.000u      0.000s      0.002w      1 calls
HF: Form S/X                        :      0.000u      0.000s      0.000w      1 calls
HF: Guess                           :      0.033u      0.000s      0.015w      1 calls
| SAD Guess                         :      0.017u      0.000s      0.014w      1 calls
HF: Form G                          :      0.033u      0.000s      0.008w      9 calls
| JK: D                             :      0.000u      0.000s      0.000w      9 calls
| JK: USO2AO                        :      0.000u      0.000s      0.000w      9 calls
| JK: JK                            :      0.033u      0.000s      0.007w      9 calls
| | DFH: compute_JK()               :      0.033u      0.000s      0.007w      9 calls
| | | DFH: Grabbing AOs             :      0.000u      0.000s      0.000w      9 calls
| | | DFH: compute_J                :      0.000u      0.000s      0.001w      9 calls
| | | DFH: compute_K                :      0.017u      0.000s      0.005w      9 calls
| JK: AO2USO                        :      0.000u      0.000s      0.000w      9 calls
HF: Form F                          :      0.000u      0.000s      0.000w      9 calls
HF: Form D                          :      0.000u      0.000s      0.000w      9 calls
HF: DIIS                            :      0.000u      0.000s      0.006w      8 calls
| DIISManager::add_entry            :      0.000u      0.000s      0.001w      8 calls
| DIISManager::extrapolate          :      0.000u      0.000s      0.001w      8 calls
| | bMatrix setup                   :      0.000u      0.000s      0.000w      8 calls
| | bMatrix pseudoinverse           :      0.000u      0.000s      0.000w      8 calls
| | New vector                      :      0.000u      0.000s      0.000w      8 calls
HF: Form C                          :      0.000u      0.000s      0.001w      8 calls

**************************************************************************************

Host: cfeld-pcx14803

Timers On : Sat Jul 10 17:03:38 2021
Timers Off: Sat Jul 10 17:06:47 2021

Wall Time:      188.67 seconds

                                                       Time (seconds)
Module                                       User      System        Wall        Calls
DFH: sparsity prep                  :      0.017u      0.017s      0.035w      1 calls
Libint2ERI::Libint2ERI              :      0.017u      0.017s      0.033w      3 calls
DFH: initialize()                   :      0.033u      0.017s      0.032w      1 calls
DFH: AO Construction                :      0.000u      0.000s      0.009w      1 calls
DFH: AO-Met. Contraction            :      0.017u      0.000s      0.003w      1 calls
HF: Form core H                     :      0.000u      0.000s      0.005w      1 calls
HF: Form S/X                        :      0.000u      0.000s      0.001w      1 calls
HF: Guess                           :      0.033u      0.000s      0.027w      1 calls
SAD Guess                           :      0.033u      0.000s      0.024w      1 calls
HF: Form G                          :      0.000u      0.000s      0.008w      9 calls
JK: D                               :      0.000u      0.000s      0.000w      9 calls
JK: USO2AO                          :      0.000u      0.000s      0.000w      9 calls
JK: JK                              :      0.000u      0.000s      0.006w      9 calls
DFH: compute_JK()                   :      0.000u      0.000s      0.006w      9 calls
DFH: Grabbing AOs                   :      0.000u      0.000s      0.000w      9 calls
DFH: compute_J                      :      0.000u      0.000s      0.001w      9 calls
DFH: compute_K                      :      0.000u      0.000s      0.005w      9 calls
JK: AO2USO                          :      0.000u      0.000s      0.000w      9 calls
HF: Form F                          :      0.000u      0.000s      0.000w      9 calls
HF: Form D                          :      0.000u      0.000s      0.000w      9 calls
HF: DIIS                            :      0.017u      0.017s      0.006w      8 calls
DIISManager::add_entry              :      0.000u      0.000s      0.001w      8 calls
DIISManager::extrapolate            :      0.000u      0.017s      0.001w      8 calls
bMatrix setup                       :      0.000u      0.000s      0.000w      8 calls
bMatrix pseudoinverse               :      0.000u      0.000s      0.000w      8 calls
New vector                          :      0.000u      0.000s      0.000w      8 calls
HF: Form C                          :      0.000u      0.000s      0.001w      8 calls

--------------------------------------------------------------------------------------
DFH: sparsity prep                  :      0.017u      0.017s      0.035w      1 calls
| Libint2ERI::Libint2ERI            :      0.017u      0.017s      0.031w      1 calls
DFH: initialize()                   :      0.033u      0.017s      0.032w      1 calls
| Libint2ERI::Libint2ERI            :      0.000u      0.000s      0.002w      2 calls
| DFH: AO Construction              :      0.000u      0.000s      0.009w      1 calls
| DFH: AO-Met. Contraction          :      0.017u      0.000s      0.003w      1 calls
HF: Form core H                     :      0.000u      0.000s      0.005w      1 calls
HF: Form S/X                        :      0.000u      0.000s      0.001w      1 calls
HF: Guess                           :      0.033u      0.000s      0.027w      1 calls
| SAD Guess                         :      0.033u      0.000s      0.024w      1 calls
HF: Form G                          :      0.000u      0.000s      0.008w      9 calls
| JK: D                             :      0.000u      0.000s      0.000w      9 calls
| JK: USO2AO                        :      0.000u      0.000s      0.000w      9 calls
| JK: JK                            :      0.000u      0.000s      0.006w      9 calls
| | DFH: compute_JK()               :      0.000u      0.000s      0.006w      9 calls
| | | DFH: Grabbing AOs             :      0.000u      0.000s      0.000w      9 calls
| | | DFH: compute_J                :      0.000u      0.000s      0.001w      9 calls
| | | DFH: compute_K                :      0.000u      0.000s      0.005w      9 calls
| JK: AO2USO                        :      0.000u      0.000s      0.000w      9 calls
HF: Form F                          :      0.000u      0.000s      0.000w      9 calls
HF: Form D                          :      0.000u      0.000s      0.000w      9 calls
HF: DIIS                            :      0.017u      0.017s      0.006w      8 calls
| DIISManager::add_entry            :      0.000u      0.000s      0.001w      8 calls
| DIISManager::extrapolate          :      0.000u      0.017s      0.001w      8 calls
| | bMatrix setup                   :      0.000u      0.000s      0.000w      8 calls
| | bMatrix pseudoinverse           :      0.000u      0.000s      0.000w      8 calls
| | New vector                      :      0.000u      0.000s      0.000w      8 calls
HF: Form C                          :      0.000u      0.000s      0.001w      8 calls

**************************************************************************************

Host: cfeld-pcx14803

Timers On : Sat Jul 10 17:07:02 2021
Timers Off: Sat Jul 10 17:07:13 2021

Wall Time:       11.12 seconds

                                                       Time (seconds)
Module                                       User      System        Wall        Calls
DFH: sparsity prep                  :      0.000u      0.000s      0.006w      1 calls
Libint2ERI::Libint2ERI              :      0.000u      0.000s      0.006w      3 calls
DFH: initialize()                   :      0.017u      0.017s      0.021w      1 calls
DFH: AO Construction                :      0.000u      0.000s      0.003w      1 calls
DFH: AO-Met. Contraction            :      0.000u      0.000s      0.002w      1 calls
HF: Form core H                     :      0.000u      0.000s      0.002w      1 calls
HF: Form S/X                        :      0.000u      0.000s      0.000w      1 calls
HF: Guess                           :      0.033u      0.000s      0.019w      1 calls
SAD Guess                           :      0.017u      0.000s      0.018w      1 calls
HF: Form G                          :      0.000u      0.000s      0.008w      9 calls
JK: D                               :      0.000u      0.000s      0.000w      9 calls
JK: USO2AO                          :      0.000u      0.000s      0.000w      9 calls
JK: JK                              :      0.000u      0.000s      0.006w      9 calls
DFH: compute_JK()                   :      0.000u      0.000s      0.006w      9 calls
DFH: Grabbing AOs                   :      0.000u      0.000s      0.000w      9 calls
DFH: compute_J                      :      0.000u      0.000s      0.001w      9 calls
DFH: compute_K                      :      0.000u      0.000s      0.005w      9 calls
JK: AO2USO                          :      0.000u      0.000s      0.000w      9 calls
HF: Form F                          :      0.000u      0.000s      0.000w      9 calls
HF: Form D                          :      0.000u      0.000s      0.000w      9 calls
HF: DIIS                            :      0.017u      0.000s      0.005w      8 calls
DIISManager::add_entry              :      0.000u      0.000s      0.001w      8 calls
DIISManager::extrapolate            :      0.000u      0.000s      0.001w      8 calls
bMatrix setup                       :      0.000u      0.000s      0.000w      8 calls
bMatrix pseudoinverse               :      0.000u      0.000s      0.000w      8 calls
New vector                          :      0.000u      0.000s      0.000w      8 calls
HF: Form C                          :      0.000u      0.000s      0.001w      8 calls

--------------------------------------------------------------------------------------
DFH: sparsity prep                  :      0.000u      0.000s      0.006w      1 calls
| Libint2ERI::Libint2ERI            :      0.000u      0.000s      0.004w      1 calls
DFH: initialize()                   :      0.017u      0.017s      0.021w      1 calls
| Libint2ERI::Libint2ERI            :      0.000u      0.000s      0.002w      2 calls
| DFH: AO Construction              :      0.000u      0.000s      0.003w      1 calls
| DFH: AO-Met. Contraction          :      0.000u      0.000s      0.002w      1 calls
HF: Form core H                     :      0.000u      0.000s      0.002w      1 calls
HF: Form S/X                        :      0.000u      0.000s      0.000w      1 calls
HF: Guess                           :      0.033u      0.000s      0.019w      1 calls
| SAD Guess                         :      0.017u      0.000s      0.018w      1 calls
HF: Form G                          :      0.000u      0.000s      0.008w      9 calls
| JK: D                             :      0.000u      0.000s      0.000w      9 calls
| JK: USO2AO                        :      0.000u      0.000s      0.000w      9 calls
| JK: JK                            :      0.000u      0.000s      0.006w      9 calls
| | DFH: compute_JK()               :      0.000u      0.000s      0.006w      9 calls
| | | DFH: Grabbing AOs             :      0.000u      0.000s      0.000w      9 calls
| | | DFH: compute_J                :      0.000u      0.000s      0.001w      9 calls
| | | DFH: compute_K                :      0.000u      0.000s      0.005w      9 calls
| JK: AO2USO                        :      0.000u      0.000s      0.000w      9 calls
HF: Form F                          :      0.000u      0.000s      0.000w      9 calls
HF: Form D                          :      0.000u      0.000s      0.000w      9 calls
HF: DIIS                            :      0.017u      0.000s      0.005w      8 calls
| DIISManager::add_entry            :      0.000u      0.000s      0.001w      8 calls
| DIISManager::extrapolate          :      0.000u      0.000s      0.001w      8 calls
| | bMatrix setup                   :      0.000u      0.000s      0.000w      8 calls
| | bMatrix pseudoinverse           :      0.000u      0.000s      0.000w      8 calls
| | New vector                      :      0.000u      0.000s      0.000w      8 calls
HF: Form C                          :      0.000u      0.000s      0.001w      8 calls

**************************************************************************************

Host: cfeld-pcx14803

Timers On : Sat Jul 10 17:07:32 2021
Timers Off: Sat Jul 10 17:07:49 2021

Wall Time:       17.32 seconds

                                                       Time (seconds)
Module                                       User      System        Wall        Calls
DFH: sparsity prep                  :      0.000u      0.000s      0.007w      1 calls
Libint2ERI::Libint2ERI              :      0.000u      0.000s      0.007w      3 calls
DFH: initialize()                   :      0.033u      0.017s      0.029w      1 calls
DFH: AO Construction                :      0.000u      0.000s      0.003w      1 calls
DFH: AO-Met. Contraction            :      0.000u      0.000s      0.002w      1 calls
HF: Form core H                     :      0.017u      0.000s      0.002w      1 calls
HF: Form S/X                        :      0.000u      0.000s      0.000w      1 calls
HF: Guess                           :      0.017u      0.000s      0.019w      1 calls
SAD Guess                           :      0.017u      0.000s      0.017w      1 calls
HF: Form G                          :      0.017u      0.000s      0.010w      9 calls
JK: D                               :      0.000u      0.000s      0.000w      9 calls
[...]
HF: Form G                          :      0.000u      0.000s      0.008w      9 calls
JK: D                               :      0.000u      0.000s      0.000w      9 calls
JK: USO2AO                          :      0.000u      0.000s      0.000w      9 calls
JK: JK                              :      0.000u      0.000s      0.007w      9 calls
DFH: compute_JK()                   :      0.000u      0.000s      0.007w      9 calls
DFH: Grabbing AOs                   :      0.000u      0.000s      0.000w      9 calls
DFH: compute_J                      :      0.000u      0.000s      0.001w      9 calls
DFH: compute_K                      :      0.000u      0.000s      0.005w      9 calls
JK: AO2USO                          :      0.000u      0.000s      0.000w      9 calls
HF: Form F                          :      0.000u      0.000s      0.000w      9 calls
HF: Form D                          :      0.000u      0.000s      0.000w      9 calls
HF: DIIS                            :      0.000u      0.000s      0.005w      8 calls
DIISManager::add_entry              :      0.000u      0.000s      0.001w      8 calls
DIISManager::extrapolate            :      0.000u      0.000s      0.000w      8 calls
bMatrix setup                       :      0.000u      0.000s      0.000w      8 calls
bMatrix pseudoinverse               :      0.000u      0.000s      0.000w      8 calls
New vector                          :      0.000u      0.000s      0.000w      8 calls
HF: Form C                          :      0.017u      0.000s      0.001w      8 calls

--------------------------------------------------------------------------------------
DFH: sparsity prep                  :      0.000u      0.017s      0.006w      1 calls
| Libint2ERI::Libint2ERI            :      0.000u      0.017s      0.004w      1 calls
DFH: initialize()                   :      0.033u      0.000s      0.021w      1 calls
| Libint2ERI::Libint2ERI            :      0.017u      0.000s      0.002w      2 calls
| DFH: AO Construction              :      0.017u      0.000s      0.003w      1 calls
| DFH: AO-Met. Contraction          :      0.000u      0.000s      0.002w      1 calls
HF: Form core H                     :      0.000u      0.000s      0.002w      1 calls
HF: Form S/X                        :      0.000u      0.000s      0.000w      1 calls
HF: Guess                           :      0.017u      0.000s      0.016w      1 calls
| SAD Guess                         :      0.017u      0.000s      0.015w      1 calls
HF: Form G                          :      0.000u      0.000s      0.008w      9 calls
| JK: D                             :      0.000u      0.000s      0.000w      9 calls
| JK: USO2AO                        :      0.000u      0.000s      0.000w      9 calls
| JK: JK                            :      0.000u      0.000s      0.007w      9 calls
| | DFH: compute_JK()               :      0.000u      0.000s      0.007w      9 calls
| | | DFH: Grabbing AOs             :      0.000u      0.000s      0.000w      9 calls
| | | DFH: compute_J                :      0.000u      0.000s      0.001w      9 calls
| | | DFH: compute_K                :      0.000u      0.000s      0.005w      9 calls
| JK: AO2USO                        :      0.000u      0.000s      0.000w      9 calls
HF: Form F                          :      0.000u      0.000s      0.000w      9 calls
HF: Form D                          :      0.000u      0.000s      0.000w      9 calls
HF: DIIS                            :      0.000u      0.000s      0.005w      8 calls
| DIISManager::add_entry            :      0.000u      0.000s      0.001w      8 calls
| DIISManager::extrapolate          :      0.000u      0.000s      0.000w      8 calls
| | bMatrix setup                   :      0.000u      0.000s      0.000w      8 calls
| | bMatrix pseudoinverse           :      0.000u      0.000s      0.000w      8 calls
| | New vector                      :      0.000u      0.000s      0.000w      8 calls
HF: Form C                          :      0.017u      0.000s      0.001w      8 calls

**************************************************************************************

Host: cfeld-pcx14803

Timers On : Sun Jul 11 09:46:04 2021
Timers Off: Sun Jul 11 09:46:44 2021

Wall Time:       39.48 seconds

                                                       Time (seconds)
Module                                       User      System        Wall        Calls
DFH: sparsity prep                  :      0.017u      0.000s      0.006w      1 calls
Libint2ERI::Libint2ERI              :      0.017u      0.000s      0.006w      3 calls
DFH: initialize()                   :      0.033u      0.000s      0.021w      1 calls
DFH: AO Construction                :      0.017u      0.000s      0.003w      1 calls
DFH: AO-Met. Contraction            :      0.000u      0.000s      0.002w      1 calls
HF: Form core H                     :      0.000u      0.000s      0.002w      1 calls
HF: Form S/X                        :      0.000u      0.000s      0.000w      1 calls
HF: Guess                           :      0.017u      0.000s      0.017w      1 calls
SAD Guess                           :      0.017u      0.000s      0.016w      1 calls
HF: Form G                          :      0.017u      0.000s      0.008w      9 calls
JK: D                               :      0.000u      0.000s      0.000w      9 calls
JK: USO2AO                          :      0.000u      0.000s      0.000w      9 calls
JK: JK                              :      0.017u      0.000s      0.007w      9 calls
DFH: compute_JK()                   :      0.017u      0.000s      0.007w      9 calls
DFH: Grabbing AOs                   :      0.000u      0.000s      0.000w      9 calls
DFH: compute_J                      :      0.000u      0.000s      0.001w      9 calls
DFH: compute_K                      :      0.017u      0.000s      0.005w      9 calls
JK: AO2USO                          :      0.000u      0.000s      0.001w      9 calls
HF: Form F                          :      0.000u      0.000s      0.000w      9 calls
HF: Form D                          :      0.000u      0.000s      0.000w      9 calls
HF: DIIS                            :      0.017u      0.017s      0.006w      8 calls
DIISManager::add_entry              :      0.000u      0.017s      0.001w      8 calls
DIISManager::extrapolate            :      0.000u      0.000s      0.001w      8 calls
bMatrix setup                       :      0.000u      0.000s      0.000w      8 calls
bMatrix pseudoinverse               :      0.000u      0.000s      0.000w      8 calls
New vector                          :      0.000u      0.000s      0.000w      8 calls
HF: Form C                          :      0.000u      0.000s      0.001w      8 calls

--------------------------------------------------------------------------------------
DFH: sparsity prep                  :      0.017u      0.000s      0.006w      1 calls
| Libint2ERI::Libint2ERI            :      0.000u      0.000s      0.004w      1 calls
DFH: initialize()                   :      0.033u      0.000s      0.021w      1 calls
| Libint2ERI::Libint2ERI            :      0.017u      0.000s      0.002w      2 calls
| DFH: AO Construction              :      0.017u      0.000s      0.003w      1 calls
| DFH: AO-Met. Contraction          :      0.000u      0.000s      0.002w      1 calls
HF: Form core H                     :      0.000u      0.000s      0.002w      1 calls
HF: Form S/X                        :      0.000u      0.000s      0.000w      1 calls
HF: Guess                           :      0.017u      0.000s      0.017w      1 calls
| SAD Guess                         :      0.017u      0.000s      0.016w      1 calls
HF: Form G                          :      0.017u      0.000s      0.008w      9 calls
| JK: D                             :      0.000u      0.000s      0.000w      9 calls
| JK: USO2AO                        :      0.000u      0.000s      0.000w      9 calls
| JK: JK                            :      0.017u      0.000s      0.007w      9 calls
| | DFH: compute_JK()               :      0.017u      0.000s      0.007w      9 calls
| | | DFH: Grabbing AOs             :      0.000u      0.000s      0.000w      9 calls
| | | DFH: compute_J                :      0.000u      0.000s      0.001w      9 calls
| | | DFH: compute_K                :      0.017u      0.000s      0.005w      9 calls
| JK: AO2USO                        :      0.000u      0.000s      0.001w      9 calls
HF: Form F                          :      0.000u      0.000s      0.000w      9 calls
HF: Form D                          :      0.000u      0.000s      0.000w      9 calls
HF: DIIS                            :      0.017u      0.017s      0.006w      8 calls
| DIISManager::add_entry            :      0.000u      0.017s      0.001w      8 calls
| DIISManager::extrapolate          :      0.000u      0.000s      0.001w      8 calls
| | bMatrix setup                   :      0.000u      0.000s      0.000w      8 calls
| | bMatrix pseudoinverse           :      0.000u      0.000s      0.000w      8 calls
| | New vector                      :      0.000u      0.000s      0.000w      8 calls
HF: Form C                          :      0.000u      0.000s      0.001w      8 calls

**************************************************************************************

Host: cfeld-pcx14803

Timers On : Sun Jul 11 09:50:05 2021
Timers Off: Sun Jul 11 09:50:19 2021

Wall Time:       13.88 seconds

                                                       Time (seconds)
Module                                       User      System        Wall        Calls
DFH: sparsity prep                  :      0.000u      0.000s      0.005w      1 calls
Libint2ERI::Libint2ERI              :      0.000u      0.000s      0.005w      3 calls
DFH: initialize()                   :      0.033u      0.017s      0.021w      1 calls
DFH: AO Construction                :      0.017u      0.000s      0.003w      1 calls
DFH: AO-Met. Contraction            :      0.000u      0.000s      0.002w      1 calls
HF: Form core H                     :      0.000u      0.000s      0.002w      1 calls
HF: Form S/X                        :      0.000u      0.000s      0.000w      1 calls
HF: Guess                           :      0.017u      0.000s      0.015w      1 calls
SAD Guess                           :      0.017u      0.000s      0.014w      1 calls
HF: Form G                          :      0.000u      0.000s      0.008w      9 calls
JK: D                               :      0.000u      0.000s      0.000w      9 calls
JK: USO2AO                          :      0.000u      0.000s      0.000w      9 calls
JK: JK                              :      0.000u      0.000s      0.007w      9 calls
DFH: compute_JK()                   :      0.000u      0.000s      0.007w      9 calls
DFH: Grabbing AOs                   :      0.000u      0.000s      0.000w      9 calls
DFH: compute_J                      :      0.000u      0.000s      0.001w      9 calls
DFH: compute_K                      :      0.000u      0.000s      0.005w      9 calls
JK: AO2USO                          :      0.000u      0.000s      0.000w      9 calls
HF: Form F                          :      0.000u      0.000s      0.000w      9 calls
HF: Form D                          :      0.000u      0.000s      0.000w      9 calls
HF: DIIS                            :      0.017u      0.000s      0.005w      8 calls
DIISManager::add_entry              :      0.000u      0.000s      0.001w      8 calls
DIISManager::extrapolate            :      0.000u      0.000s      0.001w      8 calls
bMatrix setup                       :      0.000u      0.000s      0.000w      8 calls
bMatrix pseudoinverse               :      0.000u      0.000s      0.000w      8 calls
New vector                          :      0.000u      0.000s      0.000w      8 calls
HF: Form C                          :      0.017u      0.000s      0.001w      8 calls

--------------------------------------------------------------------------------------
DFH: sparsity prep                  :      0.000u      0.000s      0.005w      1 calls
| Libint2ERI::Libint2ERI            :      0.000u      0.000s      0.004w      1 calls
DFH: initialize()                   :      0.033u      0.017s      0.021w      1 calls
| Libint2ERI::Libint2ERI            :      0.000u      0.000s      0.002w      2 calls
| DFH: AO Construction              :      0.017u      0.000s      0.003w      1 calls
| DFH: AO-Met. Contraction          :      0.000u      0.000s      0.002w      1 calls
HF: Form core H                     :      0.000u      0.000s      0.002w      1 calls
HF: Form S/X                        :      0.000u      0.000s      0.000w      1 calls
HF: Guess                           :      0.017u      0.000s      0.015w      1 calls
| SAD Guess                         :      0.017u      0.000s      0.014w      1 calls
HF: Form G                          :      0.000u      0.000s      0.008w      9 calls
| JK: D                             :      0.000u      0.000s      0.000w      9 calls
| JK: USO2AO                        :      0.000u      0.000s      0.000w      9 calls
| JK: JK                            :      0.000u      0.000s      0.007w      9 calls
| | DFH: compute_JK()               :      0.000u      0.000s      0.007w      9 calls
| | | DFH: Grabbing AOs             :      0.000u      0.000s      0.000w      9 calls
| | | DFH: compute_J                :      0.000u      0.000s      0.001w      9 calls
| | | DFH: compute_K                :      0.000u      0.000s      0.005w      9 calls
| JK: AO2USO                        :      0.000u      0.000s      0.000w      9 calls
HF: Form F                          :      0.000u      0.000s      0.000w      9 calls
HF: Form D                          :      0.000u      0.000s      0.000w      9 calls
HF: DIIS                            :      0.017u      0.000s      0.005w      8 calls
| DIISManager::add_entry            :      0.000u      0.000s      0.001w      8 calls
| DIISManager::extrapolate          :      0.000u      0.000s      0.001w      8 calls
| | bMatrix setup                   :      0.000u      0.000s      0.000w      8 calls
| | bMatrix pseudoinverse           :      0.000u      0.000s      0.000w      8 calls
| | New vector                      :      0.000u      0.000s      0.000w      8 calls
HF: Form C                          :      0.017u      0.000s      0.001w      8 calls

**************************************************************************************

Host: cfeld-pcx14803

Timers On : Sun Jul 11 09:50:34 2021
Timers Off: Sun Jul 11 09:50:49 2021

Wall Time:       14.64 seconds

                                                       Time (seconds)
Module                                       User      System        Wall        Calls
DFH: sparsity prep                  :      0.017u      0.000s      0.005w      1 calls
Libint2ERI::Libint2ERI              :      0.017u      0.000s      0.005w      3 calls
DFH: initialize()                   :      0.017u      0.017s      0.023w      1 calls
DFH: AO Construction                :      0.000u      0.000s      0.003w      1 calls
DFH: AO-Met. Contraction            :      0.000u      0.000s      0.002w      1 calls
HF: Form core H                     :      0.017u      0.000s      0.002w      1 calls
HF: Form S/X                        :      0.000u      0.000s      0.000w      1 calls
HF: Guess                           :      0.017u      0.000s      0.015w      1 calls
SAD Guess                           :      0.017u      0.000s      0.014w      1 calls
HF: Form G                          :      0.000u      0.000s      0.008w      9 calls
JK: D                               :      0.000u      0.000s      0.000w      9 calls
JK: USO2AO                          :      0.000u      0.000s      0.000w      9 calls
JK: JK                              :      0.000u      0.000s      0.006w      9 calls
DFH: compute_JK()                   :      0.000u      0.000s      0.006w      9 calls
DFH: Grabbing AOs                   :      0.000u      0.000s      0.000w      9 calls
DFH: compute_J                      :      0.000u      0.000s      0.001w      9 calls
DFH: compute_K                      :      0.000u      0.000s      0.005w      9 calls
JK: AO2USO                          :      0.000u      0.000s      0.000w      9 calls
HF: Form F                          :      0.000u      0.000s      0.000w      9 calls
HF: Form D                          :      0.000u      0.000s      0.000w      9 calls
HF: DIIS                            :      0.033u      0.000s      0.005w      8 calls
DIISManager::add_entry              :      0.000u      0.000s      0.001w      8 calls
DIISManager::extrapolate            :      0.000u      0.000s      0.001w      8 calls
bMatrix setup                       :      0.000u      0.000s      0.000w      8 calls
bMatrix pseudoinverse               :      0.000u      0.000s      0.000w      8 calls
New vector                          :      0.000u      0.000s      0.000w      8 calls
HF: Form C                          :      0.000u      0.000s      0.001w      8 calls

--------------------------------------------------------------------------------------
DFH: sparsity prep                  :      0.017u      0.000s      0.005w      1 calls
| Libint2ERI::Libint2ERI            :      0.017u      0.000s      0.003w      1 calls
DFH: initialize()                   :      0.017u      0.017s      0.023w      1 calls
| Libint2ERI::Libint2ERI            :      0.000u      0.000s      0.002w      2 calls
| DFH: AO Construction              :      0.000u      0.000s      0.003w      1 calls
| DFH: AO-Met. Contraction          :      0.000u      0.000s      0.002w      1 calls
HF: Form core H                     :      0.017u      0.000s      0.002w      1 calls
HF: Form S/X                        :      0.000u      0.000s      0.000w      1 calls
HF: Guess                           :      0.017u      0.000s      0.015w      1 calls
| SAD Guess                         :      0.017u      0.000s      0.014w      1 calls
HF: Form G                          :      0.000u      0.000s      0.008w      9 calls
| JK: D                             :      0.000u      0.000s      0.000w      9 calls
| JK: USO2AO                        :      0.000u      0.000s      0.000w      9 calls
| JK: JK                            :      0.000u      0.000s      0.006w      9 calls
| | DFH: compute_JK()               :      0.000u      0.000s      0.006w      9 calls
| | | DFH: Grabbing AOs             :      0.000u      0.000s      0.000w      9 calls
| | | DFH: compute_J                :      0.000u      0.000s      0.001w      9 calls
| | | DFH: compute_K                :      0.000u      0.000s      0.005w      9 calls
| JK: AO2USO                        :      0.000u      0.000s      0.000w      9 calls
HF: Form F                          :      0.000u      0.000s      0.000w      9 calls
HF: Form D                          :      0.000u      0.000s      0.000w      9 calls
HF: DIIS                            :      0.033u      0.000s      0.005w      8 calls
| DIISManager::add_entry            :      0.000u      0.000s      0.001w      8 calls
| DIISManager::extrapolate          :      0.000u      0.000s      0.001w      8 calls
| | bMatrix setup                   :      0.000u      0.000s      0.000w      8 calls
| | bMatrix pseudoinverse           :      0.000u      0.000s      0.000w      8 calls
| | New vector                      :      0.000u      0.000s      0.000w      8 calls
HF: Form C                          :      0.000u      0.000s      0.001w      8 calls

**************************************************************************************
