
    -----------------------------------------------------------------------
          Psi4: An Open-Source Ab Initio Electronic Structure Package
                               Psi4 1.4a3.dev229 

                         Git: Rev {master} 25a2c0f 


    D. G. A. Smith, L. A. Burns, A. C. Simmonett, R. M. Parrish,
    M. C. Schieber, R. Galvelis, P. Kraus, H. Kruse, R. Di Remigio,
    A. Alenaizan, A. M. James, S. Lehtola, J. P. Misiewicz, M. Scheurer,
    R. A. Shaw, J. B. Schriber, Y. Xie, Z. L. Glick, D. A. Sirianni,
    J. S. O'Brien, J. M. Waldrop, A. Kumar, E. G. Hohenstein,
    B. P. Pritchard, B. R. Brooks, H. F. Schaefer III, A. Yu. Sokolov,
    K. Patkowski, A. E. DePrince III, U. Bozkaya, R. A. King,
    F. A. Evangelista, J. M. Turney, T. D. Crawford, C. D. Sherrill,
    J. Chem. Phys. 152(18) 184108 (2020). https://doi.org/10.1063/5.0006002

                            Additional Code Authors
    E. T. Seidl, C. L. Janssen, E. F. Valeev, M. L. Leininger,
    J. F. Gonthier, R. M. Richard, H. R. McAlexander, M. Saitow, X. Wang,
    P. Verma, and M. H. Lechner

             Previous Authors, Complete List of Code Contributors,
                       and Citations for Specific Modules
    https://github.com/psi4/psi4/blob/master/codemeta.json
    https://github.com/psi4/psi4/graphs/contributors
    http://psicode.org/psi4manual/master/introduction.html#citing-psifour

    -----------------------------------------------------------------------


    Psi4 started on: Thursday, 04 March 2021 01:01PM

    Process ID: 62541
    Host:       cfeld-pcx14803
    PSIDATADIR: /Users/zakemil/Nextcloud/software/psi4/build/stage/share/psi4
    Memory:     500.0 MiB
    Threads:    1
    
  ==> Input File <==

--------------------------------------------------------------------------

#! Electrostatic potential and electric field evaluated on a grid around d2s.

molecule d2s {
1 2
 noreorient
 nocom
    S            0.250254404867     0.126248114412     0.000000000000
    H            0.428893090449     1.055731838795     0.000000000000
    H            1.104987458381    -0.280303532167     0.000000000000
}



# Make a regular grid to evaluate properties on
xmax = 10.0
xmin = -xmax

ymax = 10.0
ymin = -ymax

zmax = 10.0
zmin = -zmax

dz = 0.2
dx = 0.2
dy = 0.2

nx = int((xmax-xmin)/dx)
ny = int((ymax-ymin)/dy)
nz = int((zmax-zmin)/dz)

with open('grid.dat', 'w') as fp:
    for i in range(nx+1):
        xpoint = xmin + i * dx
        for j in range(ny+1):
          ypoint = ymin + j * dy
          for k in range(nz+1):
            zpoint = zmin + k * dz
            fp.write("%16.10f%16.10f%16.10f\n" % (xpoint, ypoint, zpoint))

set basis 6-31G**
set reference uhf

E, wfn = prop('scf', properties=["GRID_ESP"], return_wfn=True)
Vvals = wfn.oeprop.Vvals()
--------------------------------------------------------------------------

*** tstart() called on cfeld-pcx14803
*** at Thu Mar  4 13:01:08 2021

   => Loading Basis Set <=

    Name: 6-31G**
    Role: ORBITAL
    Keyword: BASIS
    atoms 1   entry S          line   320 file /Users/zakemil/Nextcloud/software/psi4/build/stage/share/psi4/basis/6-31gss.gbs 
    atoms 2-3 entry H          line    44 file /Users/zakemil/Nextcloud/software/psi4/build/stage/share/psi4/basis/6-31gss.gbs 


         ---------------------------------------------------------
                                   SCF
               by Justin Turney, Rob Parrish, Andy Simmonett
                          and Daniel G. A. Smith
                              UHF Reference
                        1 Threads,    500 MiB Core
         ---------------------------------------------------------

  ==> Geometry <==

    Molecular point group: cs
    Full point group: Cs

    Geometry (in Angstrom), charge = 1, multiplicity = 2:

       Center              X                  Y                   Z               Mass       
    ------------   -----------------  -----------------  -----------------  -----------------
         S            0.250254404867     0.126248114412     0.000000000000    31.972071174400
         H            0.428893090449     1.055731838795     0.000000000000     1.007825032230
         H            1.104987458381    -0.280303532167     0.000000000000     1.007825032230

  Running in cs symmetry.

  Rotational constants: A =     14.92065  B =      4.21387  C =      3.28588 [cm^-1]
  Rotational constants: A = 447309.88134  B = 126328.61511  C =  98508.09906 [MHz]
  Nuclear repulsion =   18.244335709581744

  Charge       = 1
  Multiplicity = 2
  Electrons    = 17
  Nalpha       = 9
  Nbeta        = 8

  ==> Algorithm <==

  SCF Algorithm Type is DF.
  DIIS enabled.
  MOM disabled.
  Fractional occupation disabled.
  Guess Type is SAD.
  Energy threshold   = 1.00e-06
  Density threshold  = 1.00e-06
  Integral threshold = 1.00e-12

  ==> Primary Basis <==

  Basis Set: 6-31G**
    Blend: 6-31G**
    Number of shells: 14
    Number of basis functions: 29
    Number of Cartesian functions: 29
    Spherical Harmonics?: false
    Max angular momentum: 2

   => Loading Basis Set <=

    Name: (6-31G** AUX)
    Role: JKFIT
    Keyword: DF_BASIS_SCF
    atoms 1   entry S          line   593 file /Users/zakemil/Nextcloud/software/psi4/build/stage/share/psi4/basis/cc-pvdz-jkfit.gbs 
    atoms 2-3 entry H          line    51 file /Users/zakemil/Nextcloud/software/psi4/build/stage/share/psi4/basis/cc-pvdz-jkfit.gbs 

  ==> Integral Setup <==

  DFHelper Memory: AOs need 0.002 GiB; user supplied 0.366 GiB. Using in-core AOs.

  ==> MemDFJK: Density-Fitted J/K Matrices <==

    J tasked:                   Yes
    K tasked:                   Yes
    wK tasked:                   No
    OpenMP threads:               1
    Memory [MiB]:               375
    Algorithm:                 Core
    Schwarz Cutoff:           1E-12
    Mask sparsity (%):       0.0000
    Fitting Condition:        1E-10

   => Auxiliary Basis Set <=

  Basis Set: (6-31G** AUX)
    Blend: CC-PVDZ-JKFIT
    Number of shells: 54
    Number of basis functions: 180
    Number of Cartesian functions: 180
    Spherical Harmonics?: false
    Max angular momentum: 3

  Minimum eigenvalue in the overlap matrix is 1.2052018132E-02.
  Reciprocal condition number of the overlap matrix is 2.2832292138E-03.
    Using symmetric orthogonalization.

  ==> Pre-Iterations <==

  SCF Guess: Superposition of Atomic Densities via on-the-fly atomic UHF (no occupation information).

   -------------------------
    Irrep   Nso     Nmo    
   -------------------------
     A'        22      22 
     A"         7       7 
   -------------------------
    Total      29      29
   -------------------------

  ==> Iterations <==

                           Total Energy        Delta E     RMS |[F,P]|

   @DF-UHF iter SAD:  -398.85444392501643   -3.98854e+02   0.00000e+00 
   @DF-UHF iter   1:  -397.93915407033666    9.15290e-01   1.02770e-02 DIIS
   @DF-UHF iter   2:  -397.98403307638551   -4.48790e-02   2.51584e-03 DIIS
   @DF-UHF iter   3:  -397.98687313584452   -2.84006e-03   7.25521e-04 DIIS
   @DF-UHF iter   4:  -397.98720310394060   -3.29968e-04   1.79484e-04 DIIS
   @DF-UHF iter   5:  -397.98722609644972   -2.29925e-05   2.94432e-05 DIIS
   @DF-UHF iter   6:  -397.98722671922303   -6.22773e-07   7.12150e-06 DIIS
   @DF-UHF iter   7:  -397.98722675484271   -3.56197e-08   1.30202e-06 DIIS
   @DF-UHF iter   8:  -397.98722675600038   -1.15767e-09   3.87091e-07 DIIS
  Energy and wave function converged.


  ==> Post-Iterations <==

   @Spin Contamination Metric:   9.837985605E-03
   @S^2 Expected:                7.500000000E-01
   @S^2 Observed:                7.598379856E-01
   @S   Expected:                5.000000000E-01
   @S   Observed:                5.000000000E-01

    Orbital Energies [Eh]
    ---------------------

    Alpha Occupied:                                                       

       1Ap   -92.315243     2Ap    -9.365918     1App   -7.056609  
       3Ap    -7.046734     4Ap    -7.040299     5Ap    -1.529506  
       6Ap    -1.119878     7Ap    -0.872364     2App   -0.833552  

    Alpha Virtual:                                                        

       8Ap    -0.051294     9Ap    -0.016087    10Ap     0.081556  
      11Ap     0.172749     3App    0.192385    12Ap     0.223176  
       4App    0.528745    13Ap     0.557211     5App    0.569801  
      14Ap     0.595099    15Ap     0.663892    16Ap     1.500004  
      17Ap     1.830788    18Ap     2.005712     6App    2.216086  
       7App    2.331189    19Ap     2.651641    20Ap     3.250463  
      21Ap     3.607583    22Ap     3.962728  

    Beta Occupied:                                                        

       1Ap   -92.304663     2Ap    -9.354475     3Ap    -7.040797  
       4Ap    -7.035181     1App   -7.010417     5Ap    -1.452070  
       6Ap    -1.107213     7Ap    -0.835411  

    Beta Virtual:                                                         

       2App   -0.321859     8Ap    -0.046288     9Ap     0.035064  
      10Ap     0.100396    11Ap     0.178495    12Ap     0.231765  
       3App    0.270313    13Ap     0.570038    14Ap     0.598029  
       4App    0.621484     5App    0.661088    15Ap     0.744507  
      16Ap     1.510516    17Ap     1.836303    18Ap     2.005980  
       6App    2.234962     7App    2.353737    19Ap     2.652613  
      20Ap     3.257725    21Ap     3.620292    22Ap     3.982588  

    Final Occupation by Irrep:
             Ap   App 
    DOCC [     7,    1 ]
    SOCC [     0,    1 ]

  @DF-UHF Final Energy:  -397.98722675600038

   => Energetics <=

    Nuclear Repulsion Energy =             18.2443357095817440
    One-Electron Energy =                -579.1428074110802982
    Two-Electron Energy =                 162.9112449454981970
    Total Energy =                       -397.9872267560003820

  UHF NO Occupations:
  HONO-2 :    6 Ap 1.9998979
  HONO-1 :    7 Ap 1.9952469
  HONO-0 :    2App 1.0000000
  LUNO+0 :    8 Ap 0.0047531
  LUNO+1 :    9 Ap 0.0001021
  LUNO+2 :   10 Ap 0.0000742
  LUNO+3 :    3App 0.0000007


Computation Completed


Properties will be evaluated at   0.000000,   0.000000,   0.000000 [a0]

Properties computed using the SCF density matrix

  Nuclear Dipole Moment: [e a0]
     X:    10.4652      Y:     5.2825      Z:     0.0000

  Electronic Dipole Moment: [e a0]
     X:    -9.4160      Y:    -4.7523      Z:     0.0000

  Dipole Moment: [e a0]
     X:     1.0492      Y:     0.5302      Z:     0.0000     Total:     1.1756

  Dipole Moment: [D]
     X:     2.6669      Y:     1.3477      Z:     0.0000     Total:     2.9881


 Electrostatic potential computed on the grid and written to grid_esp.dat
