
    -----------------------------------------------------------------------
          Psi4: An Open-Source Ab Initio Electronic Structure Package
                               Psi4 1.4a3.dev229 

                         Git: Rev {master} 25a2c0f 


    D. G. A. Smith, L. A. Burns, A. C. Simmonett, R. M. Parrish,
    M. C. Schieber, R. Galvelis, P. Kraus, H. Kruse, R. Di Remigio,
    A. Alenaizan, A. M. James, S. Lehtola, J. P. Misiewicz, M. Scheurer,
    R. A. Shaw, J. B. Schriber, Y. Xie, Z. L. Glick, D. A. Sirianni,
    J. S. O'Brien, J. M. Waldrop, A. Kumar, E. G. Hohenstein,
    B. P. Pritchard, B. R. Brooks, H. F. Schaefer III, A. Yu. Sokolov,
    K. Patkowski, A. E. DePrince III, U. Bozkaya, R. A. King,
    F. A. Evangelista, J. M. Turney, T. D. Crawford, C. D. Sherrill,
    J. Chem. Phys. 152(18) 184108 (2020). https://doi.org/10.1063/5.0006002

                            Additional Code Authors
    E. T. Seidl, C. L. Janssen, E. F. Valeev, M. L. Leininger,
    J. F. Gonthier, R. M. Richard, H. R. McAlexander, M. Saitow, X. Wang,
    P. Verma, and M. H. Lechner

             Previous Authors, Complete List of Code Contributors,
                       and Citations for Specific Modules
    https://github.com/psi4/psi4/blob/master/codemeta.json
    https://github.com/psi4/psi4/graphs/contributors
    http://psicode.org/psi4manual/master/introduction.html#citing-psifour

    -----------------------------------------------------------------------


    Psi4 started on: Tuesday, 02 March 2021 05:33PM

    Process ID: 12006
    Host:       cfeld-pcx14803
    PSIDATADIR: /Users/zakemil/Nextcloud/software/psi4/build/stage/share/psi4
    Memory:     500.0 MiB
    Threads:    1
    
  ==> Input File <==

--------------------------------------------------------------------------

#! Electrostatic potential and electric field evaluated on a grid around water.

molecule h2o {
1 2
 noreorient
 nocom
    O            0.250254404867     0.126248114412     0.000000000000
    H            0.428893090449     1.055731838795     0.000000000000
    H            1.104987458381    -0.280303532167     0.000000000000
}



# Make a regular grid to evaluate properties on
xmax = 10.0
xmin = -xmax

ymax = 10.0
ymin = -ymax

zmax = 10.0
zmin = -zmax

dz = 0.5
dx = 0.5
dy = 0.5

nx = int((xmax-xmin)/dx)
ny = int((ymax-ymin)/dy)
nz = int((zmax-zmin)/dz)

with open('grid.dat', 'w') as fp:
    for i in range(nx+1):
        xpoint = xmin + i * dx
        for j in range(ny+1):
          ypoint = ymin + j * dy
          for k in range(nz+1):
            zpoint = zmin + k * dz
            fp.write("%16.10f%16.10f%16.10f\n" % (xpoint, ypoint, zpoint))

set basis 6-31G**
set reference uhf

E, wfn = prop('scf', properties=["GRID_ESP"], return_wfn=True)
Vvals = wfn.oeprop.Vvals()
--------------------------------------------------------------------------

*** tstart() called on cfeld-pcx14803
*** at Tue Mar  2 17:33:02 2021

   => Loading Basis Set <=

    Name: 6-31G**
    Role: ORBITAL
    Keyword: BASIS
    atoms 1   entry O          line   149 file /Users/zakemil/Nextcloud/software/psi4/build/stage/share/psi4/basis/6-31gss.gbs 
    atoms 2-3 entry H          line    44 file /Users/zakemil/Nextcloud/software/psi4/build/stage/share/psi4/basis/6-31gss.gbs 


         ---------------------------------------------------------
                                   SCF
               by Justin Turney, Rob Parrish, Andy Simmonett
                          and Daniel G. A. Smith
                              UHF Reference
                        1 Threads,    500 MiB Core
         ---------------------------------------------------------

  ==> Geometry <==

    Molecular point group: cs
    Full point group: Cs

    Geometry (in Angstrom), charge = 1, multiplicity = 2:

       Center              X                  Y                   Z               Mass       
    ------------   -----------------  -----------------  -----------------  -----------------
         O            0.250254404867     0.126248114412     0.000000000000    15.994914619570
         H            0.428893090449     1.055731838795     0.000000000000     1.007825032230
         H            1.104987458381    -0.280303532167     0.000000000000     1.007825032230

  Running in cs symmetry.

  Rotational constants: A =     14.92065  B =      6.14065  C =      4.35028 [cm^-1]
  Rotational constants: A = 447309.88404  B = 184092.02687  C = 130418.01390 [MHz]
  Nuclear repulsion =    9.298870975085922

  Charge       = 1
  Multiplicity = 2
  Electrons    = 9
  Nalpha       = 5
  Nbeta        = 4

  ==> Algorithm <==

  SCF Algorithm Type is DF.
  DIIS enabled.
  MOM disabled.
  Fractional occupation disabled.
  Guess Type is SAD.
  Energy threshold   = 1.00e-06
  Density threshold  = 1.00e-06
  Integral threshold = 1.00e-12

  ==> Primary Basis <==

  Basis Set: 6-31G**
    Blend: 6-31G**
    Number of shells: 12
    Number of basis functions: 25
    Number of Cartesian functions: 25
    Spherical Harmonics?: false
    Max angular momentum: 2

   => Loading Basis Set <=

    Name: (6-31G** AUX)
    Role: JKFIT
    Keyword: DF_BASIS_SCF
    atoms 1   entry O          line   221 file /Users/zakemil/Nextcloud/software/psi4/build/stage/share/psi4/basis/cc-pvdz-jkfit.gbs 
    atoms 2-3 entry H          line    51 file /Users/zakemil/Nextcloud/software/psi4/build/stage/share/psi4/basis/cc-pvdz-jkfit.gbs 

  ==> Integral Setup <==

  DFHelper Memory: AOs need 0.001 GiB; user supplied 0.366 GiB. Using in-core AOs.

  ==> MemDFJK: Density-Fitted J/K Matrices <==

    J tasked:                   Yes
    K tasked:                   Yes
    wK tasked:                   No
    OpenMP threads:               1
    Memory [MiB]:               375
    Algorithm:                 Core
    Schwarz Cutoff:           1E-12
    Mask sparsity (%):       0.0000
    Fitting Condition:        1E-10

   => Auxiliary Basis Set <=

  Basis Set: (6-31G** AUX)
    Blend: CC-PVDZ-JKFIT
    Number of shells: 42
    Number of basis functions: 131
    Number of Cartesian functions: 131
    Spherical Harmonics?: false
    Max angular momentum: 3

  Minimum eigenvalue in the overlap matrix is 2.1520353375E-02.
  Reciprocal condition number of the overlap matrix is 4.4247379144E-03.
    Using symmetric orthogonalization.

  ==> Pre-Iterations <==

  SCF Guess: Superposition of Atomic Densities via on-the-fly atomic UHF (no occupation information).

   -------------------------
    Irrep   Nso     Nmo    
   -------------------------
     A'        19      19 
     A"         6       6 
   -------------------------
    Total      25      25
   -------------------------

  ==> Iterations <==

                           Total Energy        Delta E     RMS |[F,P]|

   @DF-UHF iter SAD:   -75.54097693390784   -7.55410e+01   0.00000e+00 
   @DF-UHF iter   1:   -75.58333671578525   -4.23598e-02   1.41621e-02 DIIS
   @DF-UHF iter   2:   -75.62114787360400   -3.78112e-02   3.90263e-03 DIIS
   @DF-UHF iter   3:   -75.62354338157471   -2.39551e-03   1.31130e-03 DIIS
   @DF-UHF iter   4:   -75.62390959481742   -3.66213e-04   4.24089e-04 DIIS
   @DF-UHF iter   5:   -75.62398292268730   -7.33279e-05   1.75558e-04 DIIS
   @DF-UHF iter   6:   -75.62400035168884   -1.74290e-05   4.92860e-05 DIIS
   @DF-UHF iter   7:   -75.62400184663608   -1.49495e-06   8.79995e-06 DIIS
   @DF-UHF iter   8:   -75.62400188568964   -3.90536e-08   1.35056e-06 DIIS
   @DF-UHF iter   9:   -75.62400188634949   -6.59853e-10   2.48769e-07 DIIS
  Energy and wave function converged.


  ==> Post-Iterations <==

   @Spin Contamination Metric:   6.058398815E-03
   @S^2 Expected:                7.500000000E-01
   @S^2 Observed:                7.560583988E-01
   @S   Expected:                5.000000000E-01
   @S   Observed:                5.000000000E-01

    Orbital Energies [Eh]
    ---------------------

    Alpha Occupied:                                                       

       1Ap   -21.148631     2Ap    -1.922400     3Ap    -1.228158  
       1App   -1.134496     4Ap    -1.101643  

    Alpha Virtual:                                                        

       5Ap    -0.123932     6Ap    -0.033140     7Ap     0.604274  
       2App    0.645163     8Ap     0.649301     9Ap     0.710791  
      10Ap     0.857760    11Ap     0.972685     3App    1.303865  
      12Ap     1.344499     4App    1.416690    13Ap     2.076520  
      14Ap     2.167340    15Ap     2.366300     5App    2.518979  
       6App    2.539729    16Ap     2.954661    17Ap     3.264270  
      18Ap     3.486169    19Ap     3.630650  

    Beta Occupied:                                                        

       1Ap   -21.104564     2Ap    -1.766528     3Ap    -1.189976  
       4Ap    -1.049140  

    Beta Virtual:                                                         

       1App   -0.318170     5Ap    -0.109031     6Ap    -0.024135  
       7Ap     0.600709     8Ap     0.672189     9Ap     0.739505  
       2App    0.839715    10Ap     0.878286    11Ap     1.004587  
      12Ap     1.374190     3App    1.376908     4App    1.496821  
      13Ap     2.152725    14Ap     2.162399    15Ap     2.377120  
       5App    2.552345     6App    2.565622    16Ap     2.960217  
      17Ap     3.282844    18Ap     3.496276    19Ap     3.659416  

    Final Occupation by Irrep:
             Ap   App 
    DOCC [     4,    0 ]
    SOCC [     0,    1 ]

  @DF-UHF Final Energy:   -75.62400188634949

   => Energetics <=

    Nuclear Repulsion Energy =              9.2988709750859222
    One-Electron Energy =                -118.2002099971327027
    Two-Electron Energy =                  33.2773371356972945
    Total Energy =                        -75.6240018863494896

  UHF NO Occupations:
  HONO-2 :    3 Ap 1.9992588
  HONO-1 :    4 Ap 1.9980265
  HONO-0 :    1App 1.0000000
  LUNO+0 :    5 Ap 0.0019735
  LUNO+1 :    6 Ap 0.0007412
  LUNO+2 :    7 Ap 0.0003164
  LUNO+3 :    8 Ap 0.0000004


Computation Completed


Properties will be evaluated at   0.000000,   0.000000,   0.000000 [a0]

Properties computed using the SCF density matrix

  Nuclear Dipole Moment: [e a0]
     X:     6.6819      Y:     3.3739      Z:     0.0000

  Electronic Dipole Moment: [e a0]
     X:    -5.1881      Y:    -2.6188      Z:     0.0000

  Dipole Moment: [e a0]
     X:     1.4938      Y:     0.7552      Z:     0.0000     Total:     1.6738

  Dipole Moment: [D]
     X:     3.7968      Y:     1.9195      Z:     0.0000     Total:     4.2544


 Electrostatic potential computed on the grid and written to grid_esp.dat

*** tstop() called on cfeld-pcx14803 at Tue Mar  2 17:33:13 2021
Module time:
	user time   =      10.32 seconds =       0.17 minutes
	system time =       0.06 seconds =       0.00 minutes
	total time  =         11 seconds =       0.18 minutes
Total time:
	user time   =      10.32 seconds =       0.17 minutes
	system time =       0.06 seconds =       0.00 minutes
	total time  =         11 seconds =       0.18 minutes

    Psi4 stopped on: Tuesday, 02 March 2021 05:33PM
    Psi4 wall time for execution: 0:00:10.57

*** Psi4 exiting successfully. Buy a developer a beer!
