
Host: ezak

Timers On : Tue Sep 14 12:58:17 2021
Timers Off: Tue Sep 14 12:58:20 2021

Wall Time:        2.26 seconds

                                                       Time (seconds)
Module                                       User      System        Wall        Calls

--------------------------------------------------------------------------------------

**************************************************************************************

Host: ezak

Timers On : Tue Sep 14 13:04:45 2021
Timers Off: Tue Sep 14 13:04:47 2021

Wall Time:        2.21 seconds

                                                       Time (seconds)
Module                                       User      System        Wall        Calls

--------------------------------------------------------------------------------------

**************************************************************************************

Host: ezak

Timers On : Tue Sep 14 13:06:10 2021
Timers Off: Tue Sep 14 13:06:12 2021

Wall Time:        2.35 seconds

                                                       Time (seconds)
Module                                       User      System        Wall        Calls

--------------------------------------------------------------------------------------

**************************************************************************************

Host: ezak

Timers On : Tue Sep 14 13:09:42 2021
Timers Off: Tue Sep 14 13:09:44 2021

Wall Time:        2.27 seconds

                                                       Time (seconds)
Module                                       User      System        Wall        Calls

--------------------------------------------------------------------------------------

**************************************************************************************

Host: ezak

Timers On : Tue Sep 14 13:09:58 2021
Timers Off: Tue Sep 14 13:10:00 2021

Wall Time:        2.23 seconds

                                                       Time (seconds)
Module                                       User      System        Wall        Calls

--------------------------------------------------------------------------------------

**************************************************************************************

Host: ezak

Timers On : Tue Sep 14 13:16:14 2021
Timers Off: Tue Sep 14 13:16:17 2021

Wall Time:        2.24 seconds

                                                       Time (seconds)
Module                                       User      System        Wall        Calls

--------------------------------------------------------------------------------------

**************************************************************************************

Host: ezak

Timers On : Tue Sep 14 13:20:36 2021
Timers Off: Tue Sep 14 13:20:39 2021

Wall Time:        2.35 seconds

                                                       Time (seconds)
Module                                       User      System        Wall        Calls

--------------------------------------------------------------------------------------

**************************************************************************************

Host: ezak

Timers On : Tue Sep 14 13:23:29 2021
Timers Off: Tue Sep 14 13:23:31 2021

Wall Time:        2.36 seconds

                                                       Time (seconds)
Module                                       User      System        Wall        Calls

--------------------------------------------------------------------------------------

**************************************************************************************

Host: ezak

Timers On : Tue Sep 14 13:24:44 2021
Timers Off: Tue Sep 14 13:24:49 2021

Wall Time:        4.17 seconds

                                                       Time (seconds)
Module                                       User      System        Wall        Calls

--------------------------------------------------------------------------------------

**************************************************************************************

Host: ezak

Timers On : Tue Sep 14 13:28:23 2021
Timers Off: Tue Sep 14 13:28:26 2021

Wall Time:        3.39 seconds

                                                       Time (seconds)
Module                                       User      System        Wall        Calls

--------------------------------------------------------------------------------------

**************************************************************************************

Host: ezak

Timers On : Tue Sep 14 13:29:15 2021
Timers Off: Tue Sep 14 13:29:19 2021

Wall Time:        3.38 seconds

                                                       Time (seconds)
Module                                       User      System        Wall        Calls

--------------------------------------------------------------------------------------

**************************************************************************************

Host: ezak

Timers On : Tue Sep 14 13:46:17 2021
Timers Off: Tue Sep 14 13:46:25 2021

Wall Time:        7.25 seconds

                                                       Time (seconds)
Module                                       User      System        Wall        Calls

--------------------------------------------------------------------------------------

**************************************************************************************

Host: ezak

Timers On : Tue Sep 14 13:50:21 2021
Timers Off: Tue Sep 14 13:51:20 2021

Wall Time:       59.11 seconds

                                                       Time (seconds)
Module                                       User      System        Wall        Calls

--------------------------------------------------------------------------------------

**************************************************************************************

Host: ezak

Timers On : Tue Sep 14 13:52:22 2021
Timers Off: Tue Sep 14 13:53:19 2021

Wall Time:       57.31 seconds

                                                       Time (seconds)
Module                                       User      System        Wall        Calls

--------------------------------------------------------------------------------------

**************************************************************************************

Host: ezak

Timers On : Tue Sep 14 13:56:02 2021
Timers Off: Tue Sep 14 13:56:11 2021

Wall Time:        8.75 seconds

                                                       Time (seconds)
Module                                       User      System        Wall        Calls

--------------------------------------------------------------------------------------

**************************************************************************************

Host: ezak

Timers On : Tue Sep 14 14:13:16 2021
Timers Off: Tue Sep 14 14:13:23 2021

Wall Time:        6.83 seconds

                                                       Time (seconds)
Module                                       User      System        Wall        Calls

--------------------------------------------------------------------------------------

**************************************************************************************

Host: ezak

Timers On : Tue Sep 14 14:40:13 2021
Timers Off: Tue Sep 14 14:40:20 2021

Wall Time:        6.77 seconds

                                                       Time (seconds)
Module                                       User      System        Wall        Calls

--------------------------------------------------------------------------------------

**************************************************************************************

Host: ezak

Timers On : Tue Sep 14 14:40:49 2021
Timers Off: Tue Sep 14 14:41:15 2021

Wall Time:       26.23 seconds

                                                       Time (seconds)
Module                                       User      System        Wall        Calls

--------------------------------------------------------------------------------------

**************************************************************************************
