
Host: cfeld-pcx14803

Timers On : Mon Mar 15 13:40:44 2021
Timers Off: Mon Mar 15 13:41:00 2021

Wall Time:       15.49 seconds

                                                       Time (seconds)
Module                                       User      System        Wall        Calls
DFH: sparsity prep                  :      0.000u      0.000s      0.020w      1 calls
Libint2ERI::Libint2ERI              :      0.000u      0.000s      0.020w      3 calls
DFH: initialize()                   :      0.017u      0.017s      0.028w      1 calls
DFH: AO Construction                :      0.000u      0.000s      0.004w      1 calls
DFH: AO-Met. Contraction            :      0.000u      0.000s      0.001w      1 calls
HF: Form core H                     :      0.000u      0.000s      0.003w      1 calls
HF: Form S/X                        :      0.000u      0.000s      0.000w      1 calls
HF: Guess                           :      0.050u      0.000s      0.030w      1 calls
SAD Guess                           :      0.050u      0.000s      0.028w      1 calls
HF: Form G                          :      0.000u      0.000s      0.007w     10 calls
JK: D                               :      0.000u      0.000s      0.000w     10 calls
JK: USO2AO                          :      0.000u      0.000s      0.000w     10 calls
JK: JK                              :      0.000u      0.000s      0.005w     10 calls
DFH: compute_JK()                   :      0.000u      0.000s      0.005w     10 calls
DFH: Grabbing AOs                   :      0.000u      0.000s      0.000w     10 calls
DFH: compute_J                      :      0.000u      0.000s      0.001w     10 calls
DFH: compute_K                      :      0.000u      0.000s      0.004w     10 calls
JK: AO2USO                          :      0.000u      0.000s      0.000w     10 calls
HF: Form F                          :      0.000u      0.000s      0.000w     10 calls
HF: Form D                          :      0.000u      0.000s      0.000w     10 calls
HF: DIIS                            :      0.000u      0.000s      0.009w      9 calls
DIISManager::add_entry              :      0.000u      0.000s      0.001w      9 calls
DIISManager::extrapolate            :      0.000u      0.000s      0.001w      9 calls
bMatrix setup                       :      0.000u      0.000s      0.000w      9 calls
bMatrix pseudoinverse               :      0.000u      0.000s      0.000w      9 calls
New vector                          :      0.000u      0.000s      0.000w      9 calls
HF: Form C                          :      0.000u      0.000s      0.001w      9 calls

--------------------------------------------------------------------------------------
DFH: sparsity prep                  :      0.000u      0.000s      0.020w      1 calls
| Libint2ERI::Libint2ERI            :      0.000u      0.000s      0.018w      1 calls
DFH: initialize()                   :      0.017u      0.017s      0.028w      1 calls
| Libint2ERI::Libint2ERI            :      0.000u      0.000s      0.002w      2 calls
| DFH: AO Construction              :      0.000u      0.000s      0.004w      1 calls
| DFH: AO-Met. Contraction          :      0.000u      0.000s      0.001w      1 calls
HF: Form core H                     :      0.000u      0.000s      0.003w      1 calls
HF: Form S/X                        :      0.000u      0.000s      0.000w      1 calls
HF: Guess                           :      0.050u      0.000s      0.030w      1 calls
| SAD Guess                         :      0.050u      0.000s      0.028w      1 calls
HF: Form G                          :      0.000u      0.000s      0.007w     10 calls
| JK: D                             :      0.000u      0.000s      0.000w     10 calls
| JK: USO2AO                        :      0.000u      0.000s      0.000w     10 calls
| JK: JK                            :      0.000u      0.000s      0.005w     10 calls
| | DFH: compute_JK()               :      0.000u      0.000s      0.005w     10 calls
| | | DFH: Grabbing AOs             :      0.000u      0.000s      0.000w     10 calls
| | | DFH: compute_J                :      0.000u      0.000s      0.001w     10 calls
| | | DFH: compute_K                :      0.000u      0.000s      0.004w     10 calls
| JK: AO2USO                        :      0.000u      0.000s      0.000w     10 calls
HF: Form F                          :      0.000u      0.000s      0.000w     10 calls
HF: Form D                          :      0.000u      0.000s      0.000w     10 calls
HF: DIIS                            :      0.000u      0.000s      0.009w      9 calls
| DIISManager::add_entry            :      0.000u      0.000s      0.001w      9 calls
| DIISManager::extrapolate          :      0.000u      0.000s      0.001w      9 calls
| | bMatrix setup                   :      0.000u      0.000s      0.000w      9 calls
| | bMatrix pseudoinverse           :      0.000u      0.000s      0.000w      9 calls
| | New vector                      :      0.000u      0.000s      0.000w      9 calls
HF: Form C                          :      0.000u      0.000s      0.001w      9 calls

**************************************************************************************

Host: cfeld-pcx14803

Timers On : Mon Mar 15 13:44:36 2021
Timers Off: Mon Mar 15 13:48:55 2021

Wall Time:      258.46 seconds

                                                       Time (seconds)
Module                                       User      System        Wall        Calls
DFH: sparsity prep                  :      0.017u      0.017s      0.051w      1 calls
Libint2ERI::Libint2ERI              :      0.000u      0.017s      0.050w      3 calls
DFH: initialize()                   :      0.033u      0.000s      0.036w      1 calls
DFH: AO Construction                :      0.017u      0.000s      0.011w      1 calls
DFH: AO-Met. Contraction            :      0.000u      0.000s      0.002w      1 calls
HF: Form core H                     :      0.000u      0.000s      0.005w      1 calls
HF: Form S/X                        :      0.000u      0.000s      0.001w      1 calls
HF: Guess                           :      0.050u      0.017s      0.046w      1 calls
SAD Guess                           :      0.050u      0.017s      0.044w      1 calls
HF: Form G                          :      0.000u      0.000s      0.008w     10 calls
JK: D                               :      0.000u      0.000s      0.000w     10 calls
JK: USO2AO                          :      0.000u      0.000s      0.001w     10 calls
JK: JK                              :      0.000u      0.000s      0.006w     10 calls
DFH: compute_JK()                   :      0.000u      0.000s      0.006w     10 calls
DFH: Grabbing AOs                   :      0.000u      0.000s      0.000w     10 calls
DFH: compute_J                      :      0.000u      0.000s      0.001w     10 calls
DFH: compute_K                      :      0.000u      0.000s      0.004w     10 calls
JK: AO2USO                          :      0.000u      0.000s      0.000w     10 calls
HF: Form F                          :      0.000u      0.000s      0.001w     10 calls
HF: Form D                          :      0.000u      0.000s      0.000w     10 calls
HF: DIIS                            :      0.050u      0.000s      0.011w      9 calls
DIISManager::add_entry              :      0.000u      0.000s      0.001w      9 calls
DIISManager::extrapolate            :      0.000u      0.000s      0.001w      9 calls
bMatrix setup                       :      0.000u      0.000s      0.001w      9 calls
bMatrix pseudoinverse               :      0.000u      0.000s      0.000w      9 calls
New vector                          :      0.000u      0.000s      0.000w      9 calls
HF: Form C                          :      0.000u      0.000s      0.002w      9 calls

--------------------------------------------------------------------------------------
DFH: sparsity prep                  :      0.017u      0.017s      0.051w      1 calls
| Libint2ERI::Libint2ERI            :      0.000u      0.017s      0.048w      1 calls
DFH: initialize()                   :      0.033u      0.000s      0.036w      1 calls
| Libint2ERI::Libint2ERI            :      0.000u      0.000s      0.002w      2 calls
| DFH: AO Construction              :      0.017u      0.000s      0.011w      1 calls
| DFH: AO-Met. Contraction          :      0.000u      0.000s      0.002w      1 calls
HF: Form core H                     :      0.000u      0.000s      0.005w      1 calls
HF: Form S/X                        :      0.000u      0.000s      0.001w      1 calls
HF: Guess                           :      0.050u      0.017s      0.046w      1 calls
| SAD Guess                         :      0.050u      0.017s      0.044w      1 calls
HF: Form G                          :      0.000u      0.000s      0.008w     10 calls
| JK: D                             :      0.000u      0.000s      0.000w     10 calls
| JK: USO2AO                        :      0.000u      0.000s      0.001w     10 calls
| JK: JK                            :      0.000u      0.000s      0.006w     10 calls
| | DFH: compute_JK()               :      0.000u      0.000s      0.006w     10 calls
| | | DFH: Grabbing AOs             :      0.000u      0.000s      0.000w     10 calls
| | | DFH: compute_J                :      0.000u      0.000s      0.001w     10 calls
| | | DFH: compute_K                :      0.000u      0.000s      0.004w     10 calls
| JK: AO2USO                        :      0.000u      0.000s      0.000w     10 calls
HF: Form F                          :      0.000u      0.000s      0.001w     10 calls
HF: Form D                          :      0.000u      0.000s      0.000w     10 calls
HF: DIIS                            :      0.050u      0.000s      0.011w      9 calls
| DIISManager::add_entry            :      0.000u      0.000s      0.001w      9 calls
| DIISManager::extrapolate          :      0.000u      0.000s      0.001w      9 calls
| | bMatrix setup                   :      0.000u      0.000s      0.001w      9 calls
| | bMatrix pseudoinverse           :      0.000u      0.000s      0.000w      9 calls
| | New vector                      :      0.000u      0.000s      0.000w      9 calls
HF: Form C                          :      0.000u      0.000s      0.002w      9 calls

**************************************************************************************

Host: cfeld-pcx14803

Timers On : Mon Mar 15 14:07:01 2021
Timers Off: Mon Mar 15 14:07:04 2021

Wall Time:        2.58 seconds

                                                       Time (seconds)
Module                                       User      System        Wall        Calls
DFH: sparsity prep                  :      0.017u      0.000s      0.021w      1 calls
Libint2ERI::Libint2ERI              :      0.017u      0.000s      0.021w      3 calls
DFH: initialize()                   :      0.017u      0.000s      0.019w      1 calls
DFH: AO Construction                :      0.000u      0.000s      0.004w      1 calls
DFH: AO-Met. Contraction            :      0.000u      0.000s      0.001w      1 calls
HF: Form core H                     :      0.000u      0.017s      0.003w      1 calls
HF: Form S/X                        :      0.000u      0.000s      0.000w      1 calls
HF: Guess                           :      0.033u      0.000s      0.025w      1 calls
SAD Guess                           :      0.033u      0.000s      0.023w      1 calls
HF: Form G                          :      0.017u      0.000s      0.004w     10 calls
JK: D                               :      0.000u      0.000s      0.000w     10 calls
JK: USO2AO                          :      0.000u      0.000s      0.000w     10 calls
JK: JK                              :      0.017u      0.000s      0.003w     10 calls
DFH: compute_JK()                   :      0.017u      0.000s      0.003w     10 calls
DFH: Grabbing AOs                   :      0.000u      0.000s      0.000w     10 calls
DFH: compute_J                      :      0.000u      0.000s      0.001w     10 calls
DFH: compute_K                      :      0.017u      0.000s      0.002w     10 calls
JK: AO2USO                          :      0.000u      0.000s      0.000w     10 calls
HF: Form F                          :      0.000u      0.000s      0.000w     10 calls
HF: Form D                          :      0.000u      0.000s      0.000w     10 calls
HF: DIIS                            :      0.017u      0.000s      0.006w      9 calls
DIISManager::add_entry              :      0.000u      0.000s      0.001w      9 calls
DIISManager::extrapolate            :      0.017u      0.000s      0.001w      9 calls
bMatrix setup                       :      0.017u      0.000s      0.000w      9 calls
bMatrix pseudoinverse               :      0.000u      0.000s      0.000w      9 calls
New vector                          :      0.000u      0.000s      0.000w      9 calls
HF: Form C                          :      0.000u      0.000s      0.001w      9 calls

--------------------------------------------------------------------------------------
DFH: sparsity prep                  :      0.017u      0.000s      0.021w      1 calls
| Libint2ERI::Libint2ERI            :      0.017u      0.000s      0.020w      1 calls
DFH: initialize()                   :      0.017u      0.000s      0.019w      1 calls
| Libint2ERI::Libint2ERI            :      0.000u      0.000s      0.001w      2 calls
| DFH: AO Construction              :      0.000u      0.000s      0.004w      1 calls
| DFH: AO-Met. Contraction          :      0.000u      0.000s      0.001w      1 calls
HF: Form core H                     :      0.000u      0.017s      0.003w      1 calls
HF: Form S/X                        :      0.000u      0.000s      0.000w      1 calls
HF: Guess                           :      0.033u      0.000s      0.025w      1 calls
| SAD Guess                         :      0.033u      0.000s      0.023w      1 calls
HF: Form G                          :      0.017u      0.000s      0.004w     10 calls
| JK: D                             :      0.000u      0.000s      0.000w     10 calls
| JK: USO2AO                        :      0.000u      0.000s      0.000w     10 calls
| JK: JK                            :      0.017u      0.000s      0.003w     10 calls
| | DFH: compute_JK()               :      0.017u      0.000s      0.003w     10 calls
| | | DFH: Grabbing AOs             :      0.000u      0.000s      0.000w     10 calls
| | | DFH: compute_J                :      0.000u      0.000s      0.001w     10 calls
| | | DFH: compute_K                :      0.017u      0.000s      0.002w     10 calls
| JK: AO2USO                        :      0.000u      0.000s      0.000w     10 calls
HF: Form F                          :      0.000u      0.000s      0.000w     10 calls
HF: Form D                          :      0.000u      0.000s      0.000w     10 calls
HF: DIIS                            :      0.017u      0.000s      0.006w      9 calls
| DIISManager::add_entry            :      0.000u      0.000s      0.001w      9 calls
| DIISManager::extrapolate          :      0.017u      0.000s      0.001w      9 calls
| | bMatrix setup                   :      0.017u      0.000s      0.000w      9 calls
| | bMatrix pseudoinverse           :      0.000u      0.000s      0.000w      9 calls
| | New vector                      :      0.000u      0.000s      0.000w      9 calls
HF: Form C                          :      0.000u      0.000s      0.001w      9 calls

**************************************************************************************

Host: cfeld-pcx14803

Timers On : Tue Mar 16 14:46:55 2021
Timers Off: Tue Mar 16 14:48:26 2021

Wall Time:       91.12 seconds

                                                       Time (seconds)
Module                                       User      System        Wall        Calls
DFH: sparsity prep                  :      0.000u      0.000s      0.023w      1 calls
Libint2ERI::Libint2ERI              :      0.000u      0.000s      0.022w      3 calls
DFH: initialize()                   :      0.033u      0.017s      0.019w      1 calls
DFH: AO Construction                :      0.000u      0.000s      0.004w      1 calls
DFH: AO-Met. Contraction            :      0.017u      0.000s      0.001w      1 calls
HF: Form core H                     :      0.000u      0.000s      0.003w      1 calls
HF: Form S/X                        :      0.000u      0.000s      0.000w      1 calls
HF: Guess                           :      0.033u      0.000s      0.026w      1 calls
SAD Guess                           :      0.033u      0.000s      0.024w      1 calls
HF: Form G                          :      0.000u      0.000s      0.005w     10 calls
JK: D                               :      0.000u      0.000s      0.000w     10 calls
JK: USO2AO                          :      0.000u      0.000s      0.000w     10 calls
JK: JK                              :      0.000u      0.000s      0.004w     10 calls
DFH: compute_JK()                   :      0.000u      0.000s      0.004w     10 calls
DFH: Grabbing AOs                   :      0.000u      0.000s      0.000w     10 calls
DFH: compute_J                      :      0.000u      0.000s      0.001w     10 calls
DFH: compute_K                      :      0.000u      0.000s      0.003w     10 calls
JK: AO2USO                          :      0.000u      0.000s      0.000w     10 calls
HF: Form F                          :      0.000u      0.000s      0.001w     10 calls
HF: Form D                          :      0.000u      0.000s      0.000w     10 calls
HF: DIIS                            :      0.017u      0.000s      0.008w      9 calls
DIISManager::add_entry              :      0.000u      0.000s      0.001w      9 calls
DIISManager::extrapolate            :      0.000u      0.000s      0.001w      9 calls
bMatrix setup                       :      0.000u      0.000s      0.000w      9 calls
bMatrix pseudoinverse               :      0.000u      0.000s      0.000w      9 calls
New vector                          :      0.000u      0.000s      0.000w      9 calls
HF: Form C                          :      0.000u      0.000s      0.001w      9 calls

--------------------------------------------------------------------------------------
DFH: sparsity prep                  :      0.000u      0.000s      0.023w      1 calls
| Libint2ERI::Libint2ERI            :      0.000u      0.000s      0.021w      1 calls
DFH: initialize()                   :      0.033u      0.017s      0.019w      1 calls
| Libint2ERI::Libint2ERI            :      0.000u      0.000s      0.001w      2 calls
| DFH: AO Construction              :      0.000u      0.000s      0.004w      1 calls
| DFH: AO-Met. Contraction          :      0.017u      0.000s      0.001w      1 calls
HF: Form core H                     :      0.000u      0.000s      0.003w      1 calls
HF: Form S/X                        :      0.000u      0.000s      0.000w      1 calls
HF: Guess                           :      0.033u      0.000s      0.026w      1 calls
| SAD Guess                         :      0.033u      0.000s      0.024w      1 calls
HF: Form G                          :      0.000u      0.000s      0.005w     10 calls
| JK: D                             :      0.000u      0.000s      0.000w     10 calls
| JK: USO2AO                        :      0.000u      0.000s      0.000w     10 calls
| JK: JK                            :      0.000u      0.000s      0.004w     10 calls
| | DFH: compute_JK()               :      0.000u      0.000s      0.004w     10 calls
| | | DFH: Grabbing AOs             :      0.000u      0.000s      0.000w     10 calls
| | | DFH: compute_J                :      0.000u      0.000s      0.001w     10 calls
| | | DFH: compute_K                :      0.000u      0.000s      0.003w     10 calls
| JK: AO2USO                        :      0.000u      0.000s      0.000w     10 calls
HF: Form F                          :      0.000u      0.000s      0.001w     10 calls
HF: Form D                          :      0.000u      0.000s      0.000w     10 calls
HF: DIIS                            :      0.017u      0.000s      0.008w      9 calls
| DIISManager::add_entry            :      0.000u      0.000s      0.001w      9 calls
| DIISManager::extrapolate          :      0.000u      0.000s      0.001w      9 calls
| | bMatrix setup                   :      0.000u      0.000s      0.000w      9 calls
| | bMatrix pseudoinverse           :      0.000u      0.000s      0.000w      9 calls
| | New vector                      :      0.000u      0.000s      0.000w      9 calls
HF: Form C                          :      0.000u      0.000s      0.001w      9 calls

**************************************************************************************
