
    -----------------------------------------------------------------------
          Psi4: An Open-Source Ab Initio Electronic Structure Package
                               Psi4 1.4a3.dev229 

                         Git: Rev {master} 25a2c0f 


    D. G. A. Smith, L. A. Burns, A. C. Simmonett, R. M. Parrish,
    M. C. Schieber, R. Galvelis, P. Kraus, H. Kruse, R. Di Remigio,
    A. Alenaizan, A. M. James, S. Lehtola, J. P. Misiewicz, M. Scheurer,
    R. A. Shaw, J. B. Schriber, Y. Xie, Z. L. Glick, D. A. Sirianni,
    J. S. O'Brien, J. M. Waldrop, A. Kumar, E. G. Hohenstein,
    B. P. Pritchard, B. R. Brooks, H. F. Schaefer III, A. Yu. Sokolov,
    K. Patkowski, A. E. DePrince III, U. Bozkaya, R. A. King,
    F. A. Evangelista, J. M. Turney, T. D. Crawford, C. D. Sherrill,
    J. Chem. Phys. 152(18) 184108 (2020). https://doi.org/10.1063/5.0006002

                            Additional Code Authors
    E. T. Seidl, C. L. Janssen, E. F. Valeev, M. L. Leininger,
    J. F. Gonthier, R. M. Richard, H. R. McAlexander, M. Saitow, X. Wang,
    P. Verma, and M. H. Lechner

             Previous Authors, Complete List of Code Contributors,
                       and Citations for Specific Modules
    https://github.com/psi4/psi4/blob/master/codemeta.json
    https://github.com/psi4/psi4/graphs/contributors
    http://psicode.org/psi4manual/master/introduction.html#citing-psifour

    -----------------------------------------------------------------------


    Psi4 started on: Monday, 15 March 2021 01:44PM

    Process ID: 6477
    Host:       cfeld-pcx14803
    PSIDATADIR: /Users/zakemil/Nextcloud/software/psi4/build/stage/share/psi4
    Memory:     500.0 MiB
    Threads:    1
    
  ==> Input File <==

--------------------------------------------------------------------------

#! Electrostatic potential and electric field evaluated on a grid around water.

molecule h2o {
1 2
 noreorient

    O            0.0     0.0    0.000000000000
    H            0.757    0.586     0.000000000000
    H            -0.757    0.586     0.000000000000
}



# Make a regular grid to evaluate properties on
xmax = 5.0
xmin = -xmax

ymax = 5.0
ymin = -ymax

zmax = 5.0
zmin = -zmax

dz = 0.1
dx = 0.1
dy = 0.1

nx = int((xmax-xmin)/dx)
ny = int((ymax-ymin)/dy)
nz = int((zmax-zmin)/dz)

with open('grid.dat', 'w') as fp:
    for i in range(nx+1):
        xpoint = xmin + i * dx
        for j in range(ny+1):
          ypoint = ymin + j * dy
          for k in range(nz+1):
            zpoint = zmin + k * dz
            fp.write("%16.10f%16.10f%16.10f\n" % (xpoint, ypoint, zpoint))

set basis 6-31G**
set reference uhf

E, wfn = prop('scf', properties=["GRID_ESP"],properties_origin=["COM"], return_wfn=True)
Vvals = wfn.oeprop.Vvals()
--------------------------------------------------------------------------

*** tstart() called on cfeld-pcx14803
*** at Mon Mar 15 13:44:39 2021

   => Loading Basis Set <=

    Name: 6-31G**
    Role: ORBITAL
    Keyword: BASIS
    atoms 1   entry O          line   149 file /Users/zakemil/Nextcloud/software/psi4/build/stage/share/psi4/basis/6-31gss.gbs 
    atoms 2-3 entry H          line    44 file /Users/zakemil/Nextcloud/software/psi4/build/stage/share/psi4/basis/6-31gss.gbs 


         ---------------------------------------------------------
                                   SCF
               by Justin Turney, Rob Parrish, Andy Simmonett
                          and Daniel G. A. Smith
                              UHF Reference
                        1 Threads,    500 MiB Core
         ---------------------------------------------------------

  ==> Geometry <==

    Molecular point group: c2v
    Full point group: C2v

    Geometry (in Angstrom), charge = 1, multiplicity = 2:

       Center              X                  Y                   Z               Mass       
    ------------   -----------------  -----------------  -----------------  -----------------
         O            0.000000000000    -0.065582115747     0.000000000000    15.994914619570
         H            0.757000000000     0.520417884253     0.000000000000     1.007825032230
         H           -0.757000000000     0.520417884253     0.000000000000     1.007825032230

  Running in c2v symmetry.

  Rotational constants: A =     27.42405  B =     14.59451  C =      9.52533 [cm^-1]
  Rotational constants: A = 822152.21994  B = 437532.48542  C = 285562.17493 [MHz]
  Nuclear repulsion =    9.193913156279891

  Charge       = 1
  Multiplicity = 2
  Electrons    = 9
  Nalpha       = 5
  Nbeta        = 4

  ==> Algorithm <==

  SCF Algorithm Type is DF.
  DIIS enabled.
  MOM disabled.
  Fractional occupation disabled.
  Guess Type is SAD.
  Energy threshold   = 1.00e-06
  Density threshold  = 1.00e-06
  Integral threshold = 1.00e-12

  ==> Primary Basis <==

  Basis Set: 6-31G**
    Blend: 6-31G**
    Number of shells: 12
    Number of basis functions: 25
    Number of Cartesian functions: 25
    Spherical Harmonics?: false
    Max angular momentum: 2

   => Loading Basis Set <=

    Name: (6-31G** AUX)
    Role: JKFIT
    Keyword: DF_BASIS_SCF
    atoms 1   entry O          line   221 file /Users/zakemil/Nextcloud/software/psi4/build/stage/share/psi4/basis/cc-pvdz-jkfit.gbs 
    atoms 2-3 entry H          line    51 file /Users/zakemil/Nextcloud/software/psi4/build/stage/share/psi4/basis/cc-pvdz-jkfit.gbs 

  ==> Integral Setup <==

  DFHelper Memory: AOs need 0.001 GiB; user supplied 0.366 GiB. Using in-core AOs.

  ==> MemDFJK: Density-Fitted J/K Matrices <==

    J tasked:                   Yes
    K tasked:                   Yes
    wK tasked:                   No
    OpenMP threads:               1
    Memory [MiB]:               375
    Algorithm:                 Core
    Schwarz Cutoff:           1E-12
    Mask sparsity (%):       0.0000
    Fitting Condition:        1E-10

   => Auxiliary Basis Set <=

  Basis Set: (6-31G** AUX)
    Blend: CC-PVDZ-JKFIT
    Number of shells: 42
    Number of basis functions: 131
    Number of Cartesian functions: 131
    Spherical Harmonics?: false
    Max angular momentum: 3

  Minimum eigenvalue in the overlap matrix is 2.1089984585E-02.
  Reciprocal condition number of the overlap matrix is 4.7384895031E-03.
    Using symmetric orthogonalization.

  ==> Pre-Iterations <==

  SCF Guess: Superposition of Atomic Densities via on-the-fly atomic UHF (no occupation information).

   -------------------------
    Irrep   Nso     Nmo    
   -------------------------
     A1        12      12 
     A2         2       2 
     B1         7       7 
     B2         4       4 
   -------------------------
    Total      25      25
   -------------------------

  ==> Iterations <==

                           Total Energy        Delta E     RMS |[F,P]|

   @DF-UHF iter SAD:   -75.52474197959909   -7.55247e+01   0.00000e+00 
   @DF-UHF iter   1:   -75.58471805796192   -5.99761e-02   1.93102e-02 DIIS
   @DF-UHF iter   2:   -75.62245558967207   -3.77375e-02   5.35294e-03 DIIS
   @DF-UHF iter   3:   -75.62489179282132   -2.43620e-03   1.81640e-03 DIIS
   @DF-UHF iter   4:   -75.62527127919478   -3.79486e-04   5.92159e-04 DIIS
   @DF-UHF iter   5:   -75.62534956556647   -7.82864e-05   2.49243e-04 DIIS
   @DF-UHF iter   6:   -75.62536898972807   -1.94242e-05   7.14148e-05 DIIS
   @DF-UHF iter   7:   -75.62537073239351   -1.74267e-06   1.27281e-05 DIIS
   @DF-UHF iter   8:   -75.62537077722253   -4.48290e-08   1.95156e-06 DIIS
   @DF-UHF iter   9:   -75.62537077797126   -7.48727e-10   3.67569e-07 DIIS
  Energy and wave function converged.


  ==> Post-Iterations <==

   @Spin Contamination Metric:   6.246874988E-03
   @S^2 Expected:                7.500000000E-01
   @S^2 Observed:                7.562468750E-01
   @S   Expected:                5.000000000E-01
   @S   Observed:                5.000000000E-01

    Orbital Energies [Eh]
    ---------------------

    Alpha Occupied:                                                       

       1A1   -21.147608     2A1    -1.915265     1B1    -1.220220  
       1B2    -1.131755     3A1    -1.097779  

    Alpha Virtual:                                                        

       4A1    -0.126728     2B1    -0.036915     3B1     0.601534  
       5A1     0.645640     2B2     0.646681     6A1     0.708999  
       4B1     0.857869     7A1     0.971273     1A2     1.304603  
       8A1     1.345711     3B2     1.417838     9A1     2.062646  
       5B1     2.156454     6B1     2.344762     2A2     2.507250  
       4B2     2.528397    10A1     2.935034    11A1     3.242669  
       7B1     3.470622    12A1     3.622208  

    Beta Occupied:                                                        

       1A1   -21.103442     2A1    -1.758596     1B1    -1.181857  
       3A1    -1.045420  

    Beta Virtual:                                                         

       1B2    -0.315681     4A1    -0.111655     2B1    -0.027739  
       3B1     0.597716     5A1     0.668614     6A1     0.736562  
       2B2     0.841592     4B1     0.878682     7A1     1.003250  
       8A1     1.374998     1A2     1.377046     3B2     1.497499  
       9A1     2.139651     5B1     2.151325     6B1     2.355428  
       2A2     2.540742     4B2     2.554118    10A1     2.940505  
      11A1     3.260251     7B1     3.480658    12A1     3.652194  

    Final Occupation by Irrep:
             A1    A2    B1    B2 
    DOCC [     3,    0,    1,    0 ]
    SOCC [     0,    0,    0,    1 ]

  @DF-UHF Final Energy:   -75.62537077797126

   => Energetics <=

    Nuclear Repulsion Energy =              9.1939131562798906
    One-Electron Energy =                -118.0366251624522107
    Two-Electron Energy =                  33.2173412282010716
    Total Energy =                        -75.6253707779712556

  UHF NO Occupations:
  HONO-2 :    1 B1 1.9992079
  HONO-1 :    3 A1 1.9980003
  HONO-0 :    1 B2 1.0000000
  LUNO+0 :    4 A1 0.0019997
  LUNO+1 :    2 B1 0.0007921
  LUNO+2 :    5 A1 0.0003336
  LUNO+3 :    6 A1 0.0000004


Computation Completed


Properties will be evaluated at   0.000000,   0.000000,   0.000000 [a0]

Properties computed using the SCF density matrix

  Nuclear Dipole Moment: [e a0]
     X:     0.0000      Y:     0.9754      Z:     0.0000

  Electronic Dipole Moment: [e a0]
     X:     0.0000      Y:     0.0593      Z:     0.0000

  Dipole Moment: [e a0]
     X:     0.0000      Y:     1.0348      Z:     0.0000     Total:     1.0348

  Dipole Moment: [D]
     X:     0.0000      Y:     2.6301      Z:     0.0000     Total:     2.6301


 Electrostatic potential computed on the grid and written to grid_esp.dat

*** tstop() called on cfeld-pcx14803 at Mon Mar 15 13:48:55 2021
Module time:
	user time   =     220.47 seconds =       3.67 minutes
	system time =       1.38 seconds =       0.02 minutes
	total time  =        256 seconds =       4.27 minutes
Total time:
	user time   =     220.47 seconds =       3.67 minutes
	system time =       1.38 seconds =       0.02 minutes
	total time  =        256 seconds =       4.27 minutes

    Psi4 stopped on: Monday, 15 March 2021 01:48PM
    Psi4 wall time for execution: 0:04:17.68

*** Psi4 exiting successfully. Buy a developer a beer!
