
Host: ezak

Timers On : Wed Sep 15 08:56:05 2021
Timers Off: Wed Sep 15 08:58:55 2021

Wall Time:      169.38 seconds

                                                       Time (seconds)
Module                                       User      System        Wall        Calls

--------------------------------------------------------------------------------------

**************************************************************************************

Host: ezak

Timers On : Wed Sep 15 09:15:36 2021
Timers Off: Wed Sep 15 09:16:00 2021

Wall Time:       24.23 seconds

                                                       Time (seconds)
Module                                       User      System        Wall        Calls

--------------------------------------------------------------------------------------

**************************************************************************************

Host: ezak

Timers On : Wed Sep 15 09:22:01 2021
Timers Off: Wed Sep 15 09:24:06 2021

Wall Time:      125.24 seconds

                                                       Time (seconds)
Module                                       User      System        Wall        Calls

--------------------------------------------------------------------------------------

**************************************************************************************

Host: ezak

Timers On : Wed Sep 15 09:24:24 2021
Timers Off: Wed Sep 15 09:24:50 2021

Wall Time:       26.18 seconds

                                                       Time (seconds)
Module                                       User      System        Wall        Calls

--------------------------------------------------------------------------------------

**************************************************************************************

Host: ezak

Timers On : Wed Sep 15 09:25:01 2021
Timers Off: Wed Sep 15 09:25:19 2021

Wall Time:       17.72 seconds

                                                       Time (seconds)
Module                                       User      System        Wall        Calls

--------------------------------------------------------------------------------------

**************************************************************************************

Host: ezak

Timers On : Wed Sep 15 09:25:26 2021
Timers Off: Wed Sep 15 09:25:32 2021

Wall Time:        6.26 seconds

                                                       Time (seconds)
Module                                       User      System        Wall        Calls

--------------------------------------------------------------------------------------

**************************************************************************************

Host: ezak

Timers On : Wed Sep 15 09:25:40 2021
Timers Off: Wed Sep 15 09:26:15 2021

Wall Time:       35.08 seconds

                                                       Time (seconds)
Module                                       User      System        Wall        Calls

--------------------------------------------------------------------------------------

**************************************************************************************

Host: ezak

Timers On : Wed Sep 15 09:26:35 2021
Timers Off: Wed Sep 15 09:26:42 2021

Wall Time:        6.84 seconds

                                                       Time (seconds)
Module                                       User      System        Wall        Calls

--------------------------------------------------------------------------------------

**************************************************************************************

Host: ezak

Timers On : Wed Sep 15 09:26:46 2021
Timers Off: Wed Sep 15 09:27:02 2021

Wall Time:       15.98 seconds

                                                       Time (seconds)
Module                                       User      System        Wall        Calls

--------------------------------------------------------------------------------------

**************************************************************************************

Host: ezak

Timers On : Wed Sep 15 09:27:10 2021
Timers Off: Wed Sep 15 09:28:23 2021

Wall Time:       72.51 seconds

                                                       Time (seconds)
Module                                       User      System        Wall        Calls

--------------------------------------------------------------------------------------

**************************************************************************************

Host: ezak

Timers On : Wed Sep 15 09:28:31 2021
Timers Off: Wed Sep 15 09:28:46 2021

Wall Time:       14.94 seconds

                                                       Time (seconds)
Module                                       User      System        Wall        Calls

--------------------------------------------------------------------------------------

**************************************************************************************

Host: ezak

Timers On : Wed Sep 15 09:29:12 2021
Timers Off: Wed Sep 15 09:31:14 2021

Wall Time:      122.09 seconds

                                                       Time (seconds)
Module                                       User      System        Wall        Calls

--------------------------------------------------------------------------------------

**************************************************************************************

Host: ezak

Timers On : Wed Sep 15 09:33:14 2021
Timers Off: Wed Sep 15 09:33:22 2021

Wall Time:        7.54 seconds

                                                       Time (seconds)
Module                                       User      System        Wall        Calls

--------------------------------------------------------------------------------------

**************************************************************************************

Host: ezak

Timers On : Wed Sep 15 09:33:52 2021
Timers Off: Wed Sep 15 09:34:06 2021

Wall Time:       14.51 seconds

                                                       Time (seconds)
Module                                       User      System        Wall        Calls

--------------------------------------------------------------------------------------

**************************************************************************************

Host: ezak

Timers On : Wed Sep 15 09:34:26 2021
Timers Off: Wed Sep 15 09:34:40 2021

Wall Time:       13.84 seconds

                                                       Time (seconds)
Module                                       User      System        Wall        Calls

--------------------------------------------------------------------------------------

**************************************************************************************

Host: ezak

Timers On : Wed Sep 15 09:35:03 2021
Timers Off: Wed Sep 15 09:35:13 2021

Wall Time:       10.69 seconds

                                                       Time (seconds)
Module                                       User      System        Wall        Calls

--------------------------------------------------------------------------------------

**************************************************************************************

Host: ezak

Timers On : Wed Sep 15 09:39:54 2021
Timers Off: Wed Sep 15 09:40:08 2021

Wall Time:       14.13 seconds

                                                       Time (seconds)
Module                                       User      System        Wall        Calls

--------------------------------------------------------------------------------------

**************************************************************************************

Host: ezak

Timers On : Wed Sep 15 09:40:11 2021
Timers Off: Wed Sep 15 09:40:33 2021

Wall Time:       22.29 seconds

                                                       Time (seconds)
Module                                       User      System        Wall        Calls

--------------------------------------------------------------------------------------

**************************************************************************************

Host: ezak

Timers On : Wed Sep 15 09:40:44 2021
Timers Off: Wed Sep 15 09:41:03 2021

Wall Time:       18.77 seconds

                                                       Time (seconds)
Module                                       User      System        Wall        Calls

--------------------------------------------------------------------------------------

**************************************************************************************

Host: ezak

Timers On : Wed Sep 15 09:41:11 2021
Timers Off: Wed Sep 15 09:41:39 2021

Wall Time:       27.42 seconds

                                                       Time (seconds)
Module                                       User      System        Wall        Calls

--------------------------------------------------------------------------------------

**************************************************************************************

Host: ezak

Timers On : Wed Sep 15 09:42:14 2021
Timers Off: Wed Sep 15 09:42:47 2021

Wall Time:       32.47 seconds

                                                       Time (seconds)
Module                                       User      System        Wall        Calls

--------------------------------------------------------------------------------------

**************************************************************************************

Host: ezak

Timers On : Wed Sep 15 09:42:50 2021
Timers Off: Wed Sep 15 09:43:24 2021

Wall Time:       33.92 seconds

                                                       Time (seconds)
Module                                       User      System        Wall        Calls

--------------------------------------------------------------------------------------

**************************************************************************************
