
Host: ezak

Timers On : Tue Sep 14 16:27:19 2021
Timers Off: Tue Sep 14 16:28:42 2021

Wall Time:       83.50 seconds

                                                       Time (seconds)
Module                                       User      System        Wall        Calls

--------------------------------------------------------------------------------------

**************************************************************************************
