
Host: cfeld-pcx14803

Timers On : Tue Jun 15 12:30:23 2021
Timers Off: Tue Jun 15 12:30:50 2021

Wall Time:       27.28 seconds

                                                       Time (seconds)
Module                                       User      System        Wall        Calls

--------------------------------------------------------------------------------------

**************************************************************************************
