
Host: cfeld-pcx14803

Timers On : Tue Jun 15 12:30:23 2021
Timers Off: Tue Jun 15 12:30:50 2021

Wall Time:       27.28 seconds

                                                       Time (seconds)
Module                                       User      System        Wall        Calls

--------------------------------------------------------------------------------------

**************************************************************************************

Host: cfeld-pcx14803

Timers On : Tue Jun 15 12:39:01 2021
Timers Off: Tue Jun 15 12:42:34 2021

Wall Time:      212.85 seconds

                                                       Time (seconds)
Module                                       User      System        Wall        Calls

--------------------------------------------------------------------------------------

**************************************************************************************
